 argument  1 = LiH.nw



============================== echo of input deck ==============================
title "Let's get that Quantum party started"
echo "This is a story about an ordinary teddy bear."
memory total 50 gb # push the boat out

echo

geometry noautoz units angstroms
symmetry C1
H 0.0 0.0 0.0
Li 1.624 0.0 0.0
end
basis
 * library sto-3g
end

scf
  singlet
  rhf
  thresh 1e-10
  direct
end

tce
  MBPT2

  2eorb
  2emet 13
  tilesize 1

  thresh 1.0d-8
  maxiter 150
  nroots 1
end

set tce_init:QC T

set tce:print_integrals T
set tce:qorb 6
set tce:qela 2
set tce:qelb 2

task tce energy

================================================================================


                                         
                                         


             Northwest Computational Chemistry Package (NWChem) 7.0.2
             --------------------------------------------------------


                    Environmental Molecular Sciences Laboratory
                       Pacific Northwest National Laboratory
                                Richland, WA 99352

                              Copyright (c) 1994-2020
                       Pacific Northwest National Laboratory
                            Battelle Memorial Institute

             NWChem is an open-source computational chemistry package
                        distributed under the terms of the
                      Educational Community License (ECL) 2.0
             A copy of the license is included with this distribution
                              in the LICENSE.TXT file

                                  ACKNOWLEDGMENT
                                  --------------

            This software and its documentation were developed at the
            EMSL at Pacific Northwest National Laboratory, a multiprogram
            national laboratory, operated for the U.S. Department of Energy
            by Battelle under Contract Number DE-AC05-76RL01830. Support
            for this work was provided by the Department of Energy Office
            of Biological and Environmental Research, Office of Basic
            Energy Sciences, and the Office of Advanced Scientific Computing.


           Job information
           ---------------

    hostname        = orac
    program         = nwchem
    date            = Mon Sep 13 23:15:47 2021

    compiled        = Thu_May_20_07:47:15_2021
    source          = /home/conda/feedstock_root/build_artifacts/nwchem_1621493919111/work
    nwchem branch   = 7.0.2
    nwchem revision = d613826
    ga revision     = 5.7.2
    use scalapack   = T
    input           = LiH.nw
    prefix          = LiH.
    data base       = ./LiH.db
    status          = startup
    nproc           =        6
    time left       =     -1s



           Memory information
           ------------------

    heap     = 1677721596 doubles =  12800.0 Mbytes
    stack    = 1677721601 doubles =  12800.0 Mbytes
    global   = 3355443200 doubles =  25600.0 Mbytes (distinct from heap & stack)
    total    = 6710886397 doubles =  51200.0 Mbytes
    verify   = yes
    hardfail = no 


           Directory information
           ---------------------

  0 permanent = .
  0 scratch   = .




                                NWChem Input Module
                                -------------------


                       Let's get that Quantum party started
                       ------------------------------------

 Scaling coordinates for geometry "geometry" by  1.889725989
 (inverse scale =  0.529177249)

 Turning off AUTOSYM since
 SYMMETRY directive was detected!



                             Geometry "geometry" -> ""
                             -------------------------

 Output coordinates in angstroms (scale by  1.889725989 to convert to a.u.)

  No.       Tag          Charge          X              Y              Z
 ---- ---------------- ---------- -------------- -------------- --------------
    1 H                    1.0000    -1.21800000     0.00000000     0.00000000
    2 Li                   3.0000     0.40600000     0.00000000     0.00000000

      Atomic Mass 
      ----------- 

      H                  1.007825
      Li                 7.016000


 Effective nuclear repulsion energy (a.u.)       0.9775441792

            Nuclear Dipole moment (a.u.) 
            ----------------------------
        X                 Y               Z
 ---------------- ---------------- ----------------
     0.0000000000     0.0000000000     0.0000000000


            XYZ format geometry
            -------------------
     2
 geometry
 H                    -1.21800000     0.00000000     0.00000000
 Li                    0.40600000     0.00000000     0.00000000

 ==============================================================================
                                internuclear distances
 ------------------------------------------------------------------------------
       center one      |      center two      | atomic units |  angstroms
 ------------------------------------------------------------------------------
    2 Li               |   1 H                |     3.06892  |     1.62400
 ------------------------------------------------------------------------------
                         number of included internuclear distances:          1
 ==============================================================================



  library name resolved from: environment
  library file name is: </home/jarvist/miniconda3/envs/PEM/share/nwchem/libraries/>
  


 Summary of "ao basis" -> "" (cartesian)
 ------------------------------------------------------------------------------
       Tag                 Description            Shells   Functions and Types
 ---------------- ------------------------------  ------  ---------------------
 *                           sto-3g                   on all atoms 


                      Basis "ao basis" -> "ao basis" (cartesian)
                      -----
  H (Hydrogen)
  ------------
            Exponent  Coefficients 
       -------------- ---------------------------------------------------------
  1 S  3.42525091E+00  0.154329
  1 S  6.23913730E-01  0.535328
  1 S  1.68855400E-01  0.444635

  Li (Lithium)
  ------------
            Exponent  Coefficients 
       -------------- ---------------------------------------------------------
  1 S  1.61195750E+01  0.154329
  1 S  2.93620070E+00  0.535328
  1 S  7.94650500E-01  0.444635

  2 S  6.36289700E-01 -0.099967
  2 S  1.47860100E-01  0.399513
  2 S  4.80887000E-02  0.700115

  3 P  6.36289700E-01  0.155916
  3 P  1.47860100E-01  0.607684
  3 P  4.80887000E-02  0.391957



 Summary of "ao basis" -> "ao basis" (cartesian)
 ------------------------------------------------------------------------------
       Tag                 Description            Shells   Functions and Types
 ---------------- ------------------------------  ------  ---------------------
 H                           sto-3g                  1        1   1s
 Li                          sto-3g                  3        5   2s1p


                                 NWChem SCF Module
                                 -----------------


                       Let's get that Quantum party started



  ao basis        = "ao basis"
  functions       =     6
  atoms           =     2
  closed shells   =     2
  open shells     =     0
  charge          =   0.00
  wavefunction    = RHF 
  input vectors   = atomic
  output vectors  = ./LiH.movecs
  use symmetry    = F
  symmetry adapt  = F


 Summary of "ao basis" -> "ao basis" (cartesian)
 ------------------------------------------------------------------------------
       Tag                 Description            Shells   Functions and Types
 ---------------- ------------------------------  ------  ---------------------
 H                           sto-3g                  1        1   1s
 Li                          sto-3g                  3        5   2s1p



 Forming initial guess at       0.0s


      Superposition of Atomic Density Guess
      -------------------------------------

 Sum of atomic energies:          -7.78210783

      Non-variational initial energy
      ------------------------------

 Total energy =      -7.567213
 1-e energy   =     -12.123542
 2-e energy   =       3.578784
 HOMO         =      -0.242934
 LUMO         =       0.036186


 Starting SCF solution at       0.1s



 ----------------------------------------------
         Quadratically convergent ROHF

 Convergence threshold     :          1.000E-10
 Maximum no. of iterations :           30
 Final Fock-matrix accuracy:          1.000E-12
 ----------------------------------------------


              iter       energy          gnorm     gmax       time
             ----- ------------------- --------- --------- --------
                 1       -7.8517689276  2.09D-01  2.03D-01      0.1
                 2       -7.8602572547  3.68D-02  3.32D-02      0.1
                 3       -7.8609902742  1.58D-03  1.38D-03      0.2
                 4       -7.8609916150  3.13D-06  2.63D-06      0.2
                 5       -7.8609916150  1.15D-11  9.85D-12      0.2


       Final RHF  results 
       ------------------ 

         Total SCF energy =     -7.860991614980
      One-electron energy =    -12.411960382608
      Two-electron energy =      3.573424588442
 Nuclear repulsion energy =      0.977544179187

        Time for solution =      0.1s


             Final eigenvalues
             -----------------

              1      
    1   -2.3493
    2   -0.2832
    3    0.0780
    4    0.1639
    5    0.1639
    6    0.5410

                       ROHF Final Molecular Orbital Analysis
                       -------------------------------------

 Vector    2  Occ=2.000000D+00  E=-2.832160D-01
              MO Center= -9.1D-01, -1.8D-18, -1.7D-17, r^2= 1.5D+00
   Bfn.  Coefficient  Atom+Function         Bfn.  Coefficient  Atom+Function  
  ----- ------------  ---------------      ----- ------------  ---------------
     1      0.550534  1 H  s                  3      0.457346  2 Li s          
     4     -0.345179  2 Li px                 2     -0.165576  2 Li s          

 Vector    3  Occ=0.000000D+00  E= 7.799583D-02
              MO Center=  1.3D+00,  6.2D-19, -4.8D-17, r^2= 2.6D+00
   Bfn.  Coefficient  Atom+Function         Bfn.  Coefficient  Atom+Function  
  ----- ------------  ---------------      ----- ------------  ---------------
     3      0.799225  2 Li s                  4      0.611707  2 Li px         
     2     -0.210343  2 Li s          

 Vector    4  Occ=0.000000D+00  E= 1.639453D-01
              MO Center=  4.1D-01, -3.7D-17,  3.2D-17, r^2= 3.3D+00
   Bfn.  Coefficient  Atom+Function         Bfn.  Coefficient  Atom+Function  
  ----- ------------  ---------------      ----- ------------  ---------------
     5      0.759382  2 Li py                 6     -0.650644  2 Li pz         

 Vector    5  Occ=0.000000D+00  E= 1.639453D-01
              MO Center=  4.1D-01, -1.1D-17, -1.3D-17, r^2= 3.3D+00
   Bfn.  Coefficient  Atom+Function         Bfn.  Coefficient  Atom+Function  
  ----- ------------  ---------------      ----- ------------  ---------------
     6      0.759382  2 Li pz                 5      0.650644  2 Li py         

 Vector    6  Occ=0.000000D+00  E= 5.409539D-01
              MO Center= -5.7D-01, -4.4D-18,  2.7D-17, r^2= 2.6D+00
   Bfn.  Coefficient  Atom+Function         Bfn.  Coefficient  Atom+Function  
  ----- ------------  ---------------      ----- ------------  ---------------
     1      1.172317  1 H  s                  4      0.972251  2 Li px         
     3     -0.693156  2 Li s          


 center of mass
 --------------
 x =   0.38176057 y =   0.00000000 z =   0.00000000

 moments of inertia (a.u.)
 ------------------
           0.000000000000           0.000000000000           0.000000000000
           0.000000000000           8.299711200790           0.000000000000
           0.000000000000           0.000000000000           8.299711200790

  Mulliken analysis of the total density
  --------------------------------------

    Atom       Charge   Shell Charges
 -----------   ------   -------------------------------------------------------
    1 H    1     0.98   0.98
    2 Li   3     3.02   1.99  0.60  0.43

       Multipole analysis of the density wrt the origin
       ------------------------------------------------

     L   x y z        total         open         nuclear
     -   - - -        -----         ----         -------
     0   0 0 0     -0.000000      0.000000      4.000000

     1   1 0 0      1.914027      0.000000      0.000000
     1   0 1 0      0.000000      0.000000      0.000000
     1   0 0 1     -0.000000      0.000000      0.000000

     2   2 0 0     -3.643052      0.000000      7.063679
     2   1 1 0     -0.000000      0.000000      0.000000
     2   1 0 1     -0.000000      0.000000      0.000000
     2   0 2 0     -3.934720      0.000000      0.000000
     2   0 1 1     -0.000000      0.000000      0.000000
     2   0 0 2     -3.934720      0.000000      0.000000

 ------------------------------------
     Number of active orbitals      6
     Number of active alpha electrons      2
     Number of active beta electrons       2
 ------------------------------------
                   NWChem Extensible Many-Electron Theory Module
                   ---------------------------------------------

              ======================================================
                   This portion of the program was automatically
                  generated by a Tensor Contraction Engine (TCE).
                  The development of this portion of the program
                 and TCE was supported by US Department of Energy,
                Office of Science, Office of Basic Energy Science.
                      TCE is a product of Battelle and PNNL.
              Please cite: S.Hirata, J.Phys.Chem.A 107, 9887 (2003).
              ======================================================

                       Let's get that Quantum party started


            General Information
            -------------------
      Number of processors :     6
         Wavefunction type : Restricted Hartree-Fock
          No. of electrons :     4
           Alpha electrons :     2
            Beta electrons :     2
           No. of orbitals :    12
            Alpha orbitals :     6
             Beta orbitals :     6
        Alpha frozen cores :     0
         Beta frozen cores :     0
     Alpha frozen virtuals :     0
      Beta frozen virtuals :     0
         Spin multiplicity : singlet 
    Number of AO functions :     6
       Number of AO shells :     4
        Use of symmetry is : off
      Symmetry adaption is : off
         Schwarz screening : 0.10D-09

          Correlation Information
          -----------------------
          Calculation type : Second-order tensor many-body perturbation theory           
   Perturbative correction : none                                                        
            Max iterations :      150
        Residual threshold : 0.10D-07
     T(0) DIIS level shift : 0.00D+00
     L(0) DIIS level shift : 0.00D+00
     T(1) DIIS level shift : 0.00D+00
     L(1) DIIS level shift : 0.00D+00
     T(R) DIIS level shift : 0.00D+00
     T(I) DIIS level shift : 0.00D+00
   CC-T/L Amplitude update :  5-th order DIIS
     No. of excited states :     1
               Target root :     1
           Target symmetry : none
      Symmetry restriction : off
   Dipole & oscillator str : off
                I/O scheme : Global Array Library
        L-threshold :  0.10D-07
        EOM-threshold :  0.10D-07
 no EOMCCSD initial starts read in
 TCE RESTART OPTIONS
 READ_INT:   F
 WRITE_INT:  F
 READ_TA:    F
 WRITE_TA:   F
 READ_XA:    F
 WRITE_XA:   F
 READ_IN3:   F
 WRITE_IN3:  F
 SLICE:      F
 D4D5:       F
 quantumc:   T
 qrotation:  F
 pwtce:      F
 qducc:      F
 nacto:                         0
 nrotv:                         0
 nrot:                          0

            Memory Information
            ------------------
          Available GA space size is    ********** doubles
          Available MA space size is    3355442532 doubles

 Maximum block size supplied by input
 Maximum block size         1 doubles

 tile_dim =      1

 Block   Spin    Irrep     Size     Offset   Alpha
 -------------------------------------------------
   1    alpha     a      1 doubles       0       1
   2    alpha     a      1 doubles       1       2
   3    beta      a      1 doubles       2       1
   4    beta      a      1 doubles       3       2
   5    alpha     a      1 doubles       4       5
   6    alpha     a      1 doubles       5       6
   7    alpha     a      1 doubles       6       7
   8    alpha     a      1 doubles       7       8
   9    beta      a      1 doubles       8       5
  10    beta      a      1 doubles       9       6
  11    beta      a      1 doubles      10       7
  12    beta      a      1 doubles      11       8

 Global array virtual files algorithm will be used

 Parallel file system coherency ......... OK

 Fock matrix recomputed
 1-e file size   =               36
 1-e file name   = ./LiH.f1
 Cpu & wall time / sec            0.0            0.0
 4-electron integrals stored in orbital form

 v2    file size   =              231
 4-index algorithm nr.  13 is used
 imaxsize =       30
 imaxsize ichop =        0
 begin_one_electron_integrals
    1    1        -4.7225445389
    2    1         0.1046509472
    3    1         0.1666817042
    6    1        -0.0364675060
    1    2         0.1046509472
    2    2        -1.4834356524
    3    2         0.0322130514
    6    2        -0.0461885162
    1    3         0.1666817042
    2    3         0.0322130514
    3    3        -1.1239339439
    6    3         0.0299913825
    4    4        -1.1335684853
    5    5        -1.1335684853
    1    6        -0.0364675060
    2    6        -0.0461885162
    3    6         0.0299913825
    6    6        -0.9550718704
 end_one_electron_integrals
 begin_two_electron_integrals
    1    1    1    1        1.6586341297
    2    1    1    1       -0.1106363550
    2    1    2    1        0.0130645274
    3    1    1    1       -0.1387742914
    3    1    2    1        0.0111483647
    3    1    3    1        0.0216927548
    3    1    2    2       -0.0155964006
    4    1    4    1        0.0098176054
    5    1    5    1        0.0098176054
    6    1    1    1        0.0548989580
    6    1    2    1       -0.0090300642
    6    1    3    1       -0.0025728343
    6    1    6    1        0.0088150569
    6    1    2    2       -0.0069827652
    6    1    3    2        0.0017784589
    6    1    3    3        0.0106046201
    6    1    4    4        0.0006745349
    6    1    5    5        0.0006745349
    2    2    1    1        0.3638176436
    2    2    2    1        0.0059854078
    2    2    2    2        0.4856489393
    3    2    1    1        0.0139624404
    3    2    2    1       -0.0032853885
    3    2    3    1        0.0001619810
    3    2    2    2       -0.0489895676
    3    2    3    2        0.0133097871
    4    2    4    1        0.0074694950
    4    2    4    2        0.0232922200
    5    2    5    1        0.0074694950
    5    2    5    2        0.0232922200
    6    2    1    1       -0.0442121076
    6    2    2    1        0.0044659216
    6    2    3    1        0.0008292451
    6    2    6    1        0.0000868116
    6    2    2    2        0.1255826673
    6    2    3    2       -0.0348936308
    6    2    6    2        0.1241931734
    6    2    3    3       -0.0130270856
    6    2    4    4       -0.0174986959
    6    2    5    5       -0.0174986959
    3    3    1    1        0.3955314778
    3    3    2    1       -0.0108959187
    3    3    3    1        0.0017834245
    3    3    2    2        0.2229346816
    3    3    3    2        0.0078008269
    3    3    3    3        0.3376204672
    4    3    4    1        0.0102618064
    4    3    4    2        0.0192988106
    4    3    4    3        0.0412724844
    5    3    5    1        0.0102618064
    5    3    5    2        0.0192988106
    5    3    5    3        0.0412724844
    6    3    1    1        0.0177707176
    6    3    2    1       -0.0035458633
    6    3    3    1        0.0043707044
    6    3    6    1        0.0043207171
    6    3    2    2       -0.0514996414
    6    3    3    2        0.0096587956
    6    3    6    2       -0.0321335795
    6    3    3    3        0.0359708330
    6    3    6    3        0.0265101009
    6    3    4    4        0.0024499938
    6    3    5    5        0.0024499938
    4    4    1    1        0.3963214387
    4    4    2    1       -0.0043038280
    4    4    3    1       -0.0049824402
    4    4    2    2        0.2689903698
    4    4    3    2        0.0060336689
    4    4    3    3        0.2819299070
    4    4    4    4        0.3129455112
    5    4    5    4        0.0168691395
    6    4    4    1       -0.0061296892
    6    4    4    2       -0.0195688894
    6    4    4    3       -0.0136764080
    6    4    6    4        0.0197595513
    5    5    1    1        0.3963214387
    5    5    2    1       -0.0043038280
    5    5    3    1       -0.0049824402
    5    5    2    2        0.2689903698
    5    5    3    2        0.0060336689
    5    5    3    3        0.2819299070
    5    5    4    4        0.2792072321
    5    5    5    5        0.3129455112
    6    5    5    1       -0.0061296892
    6    5    5    2       -0.0195688894
    6    5    5    3       -0.0136764080
    6    5    6    5        0.0197595513
    6    6    1    1        0.3616506636
    6    6    2    1        0.0030641682
    6    6    3    1       -0.0113311357
    6    6    6    1       -0.0032532257
    6    6    2    2        0.4528663236
    6    6    3    2       -0.0436377813
    6    6    6    2        0.1326427246
    6    6    3    3        0.2412780686
    6    6    6    3       -0.0441939327
    6    6    4    4        0.2678020294
    6    6    5    5        0.2678020294
    6    6    6    6        0.4529082105
 end_two_electron_integrals
 enrep_tce =   0.97754417918663494     
  EHF(A)             =        -7.86099161
  EHF(total)         =        -7.86099161
  Shift (HFtot-HFA)  =        -0.00000000
 Cpu & wall time / sec            0.0            0.0
 T1-number-of-tasks                    8

 t1 file size   =                8
 t1 file name   = ./LiH.t1
 t1 file handle =       -998
 T2-number-of-boxes                   94

 t2 file size   =               94
 t2 file name   = ./LiH.t2
 t2 file handle =       -996

 MBPT(2) iterations
 --------------------------------------------------------
 Iter          Residuum       Correlation     Cpu    Wall
 --------------------------------------------------------
    1   0.0000000000001  -0.0130995950686     0.0     0.0
 --------------------------------------------------------
 Iterations converged
 MBPT(2) correlation energy / hartree =        -0.013099595068646
 MBPT(2) total energy / hartree       =        -7.874091210048443

 Ground-state symmetry is a   

 =========================================
 Excited-state calculation ( a   symmetry)
 =========================================
 Dim. of EOMCC iter. space      500

 x1 file size   =                8

 Not yet implemented                   0
 ------------------------------------------------------------------------
 Not yet implemented                   0
 ------------------------------------------------------------------------
 Not yet implemented                   0
 ------------------------------------------------------------------------
 ------------------------------------------------------------------------
  current input line : 
     0: 
 ------------------------------------------------------------------------
 ------------------------------------------------------------------------
 A feature requested has not yet been implemented

 Not yet implemented                   0
 ------------------------------------------------------------------------
 ------------------------------------------------------------------------
  current input line : 
     0: 
 ------------------------------------------------------------------------
 ------------------------------------------------------------------------
 A feature requested has not yet been implemented

 ------------------------------------------------------------------------
 For more information see the NWChem manual at https://github.com/nwchemgit/nwchem/wiki
 Not yet implemented                   0
 ------------------------------------------------------------------------
 ------------------------------------------------------------------------
  current input line : 
     0: 
 ------------------------------------------------------------------------
 ------------------------------------------------------------------------
 A feature requested has not yet been implemented

 ------------------------------------------------------------------------
 ------------------------------------------------------------------------
  current input line : 
     0: 
 ------------------------------------------------------------------------
 ------------------------------------------------------------------------
 A feature requested has not yet been implemented

 ------------------------------------------------------------------------
 For more information see the NWChem manual at https://github.com/nwchemgit/nwchem/wiki
 ------------------------------------------------------------------------
  current input line : 
     0: 
 ------------------------------------------------------------------------
 ------------------------------------------------------------------------
 A feature requested has not yet been implemented

 ------------------------------------------------------------------------
 For more information see the NWChem manual at https://github.com/nwchemgit/nwchem/wiki




 For further details see manual section:                                                                                                                                                                                                                                                                
 ------------------------------------------------------------------------
 For more information see the NWChem manual at https://github.com/nwchemgit/nwchem/wiki


 For further details see manual section:                                                                                                                                                                                                                                                                


 For further details see manual section:                                                                                                                                                                                                                                                                
 For more information see the NWChem manual at https://github.com/nwchemgit/nwchem/wiki


 For further details see manual section:                                                                                                                                                                                                                                                                
 For further details see manual section:                                                                                                                                                                                                                                                                
 x2 file size   =               94
 ------------------------------------------------------------------------
 Not yet implemented                   0
 ------------------------------------------------------------------------
 ------------------------------------------------------------------------
  current input line : 
    42: task tce energy
 ------------------------------------------------------------------------
 ------------------------------------------------------------------------
 A feature requested has not yet been implemented

 ------------------------------------------------------------------------
 For more information see the NWChem manual at https://github.com/nwchemgit/nwchem/wiki


 For further details see manual section:                                                                                                                                                                                                                                                                
