 argument  1 = 631g.nw



============================== echo of input deck ==============================
memory total 50 gb

echo

start water

geometry units angstroms
symmetry C1
  H    0.7493682    0.0000000    0.4424329
  O    0.0000000    0.0000000   -0.1653507
  H   -0.7493682    0.0000000    0.4424329
end

basis spherical
 * library 6-31g
end

scf
  singlet
  rhf
  thresh 1e-8
  direct
end

tce
  mbpt2
  2eorb
  2emet 13
  thresh 1.0d-7
  maxiter 150
end

set tce:print_integrals T
set tce:qorb 13
set tce:qela 5
set tce:qelb 5

task tce energy

================================================================================


                                         
                                         


             Northwest Computational Chemistry Package (NWChem) 7.0.2
             --------------------------------------------------------


                    Environmental Molecular Sciences Laboratory
                       Pacific Northwest National Laboratory
                                Richland, WA 99352

                              Copyright (c) 1994-2020
                       Pacific Northwest National Laboratory
                            Battelle Memorial Institute

             NWChem is an open-source computational chemistry package
                        distributed under the terms of the
                      Educational Community License (ECL) 2.0
             A copy of the license is included with this distribution
                              in the LICENSE.TXT file

                                  ACKNOWLEDGMENT
                                  --------------

            This software and its documentation were developed at the
            EMSL at Pacific Northwest National Laboratory, a multiprogram
            national laboratory, operated for the U.S. Department of Energy
            by Battelle under Contract Number DE-AC05-76RL01830. Support
            for this work was provided by the Department of Energy Office
            of Biological and Environmental Research, Office of Basic
            Energy Sciences, and the Office of Advanced Scientific Computing.


           Job information
           ---------------

    hostname        = nhqm2.technion.ac.il
    program         = nwchem
    date            = Wed Sep 29 07:24:29 2021

    compiled        = Thu_May_20_07:57:16_2021
    source          = /home/conda/feedstock_root/build_artifacts/nwchem_1621493927360/work
    nwchem branch   = 7.0.2
    nwchem revision = d613826
    ga revision     = 5.7.2
    use scalapack   = T
    input           = 631g.nw
    prefix          = water.
    data base       = ./water.db
    status          = startup
    nproc           =        4
    time left       =     -1s



           Memory information
           ------------------

    heap     = 1677721596 doubles =  12800.0 Mbytes
    stack    = 1677721601 doubles =  12800.0 Mbytes
    global   = 3355443200 doubles =  25600.0 Mbytes (distinct from heap & stack)
    total    = 6710886397 doubles =  51200.0 Mbytes
    verify   = yes
    hardfail = no 


           Directory information
           ---------------------

  0 permanent = .
  0 scratch   = .




                                NWChem Input Module
                                -------------------



 Scaling coordinates for geometry "geometry" by  1.889725989
 (inverse scale =  0.529177249)

 Turning off AUTOSYM since
 SYMMETRY directive was detected!


          ------
          auto-z
          ------
  no constraints, skipping    0.0000000000000000     
  no constraints, skipping    0.0000000000000000     


                             Geometry "geometry" -> ""
                             -------------------------

 Output coordinates in angstroms (scale by  1.889725989 to convert to a.u.)

  No.       Tag          Charge          X              Y              Z
 ---- ---------------- ---------- -------------- -------------- --------------
    1 H                    1.0000     0.74936820     0.00000000     0.48622688
    2 O                    8.0000     0.00000000     0.00000000    -0.12155672
    3 H                    1.0000    -0.74936820     0.00000000     0.48622688

      Atomic Mass 
      ----------- 

      H                  1.007825
      O                 15.994910


 Effective nuclear repulsion energy (a.u.)       9.1282843852

            Nuclear Dipole moment (a.u.) 
            ----------------------------
        X                 Y               Z
 ---------------- ---------------- ----------------
     0.0000000000     0.0000000000     0.0000000000



                                Z-matrix (autoz)
                                -------- 

 Units are Angstrom for bonds and degrees for angles

      Type          Name      I     J     K     L     M      Value
      ----------- --------  ----- ----- ----- ----- ----- ----------
    1 Stretch                  1     2                       0.96486
    2 Stretch                  2     3                       0.96486
    3 Bend                     1     2     3               101.91165


            XYZ format geometry
            -------------------
     3
 geometry
 H                     0.74936820     0.00000000     0.48622688
 O                     0.00000000     0.00000000    -0.12155672
 H                    -0.74936820     0.00000000     0.48622688

 ==============================================================================
                                internuclear distances
 ------------------------------------------------------------------------------
       center one      |      center two      | atomic units |  angstroms
 ------------------------------------------------------------------------------
    2 O                |   1 H                |     1.82332  |     0.96486
    3 H                |   2 O                |     1.82332  |     0.96486
 ------------------------------------------------------------------------------
                         number of included internuclear distances:          2
 ==============================================================================



 ==============================================================================
                                 internuclear angles
 ------------------------------------------------------------------------------
        center 1       |       center 2       |       center 3       |  degrees
 ------------------------------------------------------------------------------
    1 H                |   2 O                |   3 H                |   101.91
 ------------------------------------------------------------------------------
                            number of included internuclear angles:          1
 ==============================================================================



  library name resolved from: environment
  library file name is: </home/debarati/miniconda3/share/nwchem/libraries/>
  


 Summary of "ao basis" -> "" (spherical)
 ------------------------------------------------------------------------------
       Tag                 Description            Shells   Functions and Types
 ---------------- ------------------------------  ------  ---------------------
 *                           6-31g                    on all atoms 


                      Basis "ao basis" -> "ao basis" (spherical)
                      -----
  H (Hydrogen)
  ------------
            Exponent  Coefficients 
       -------------- ---------------------------------------------------------
  1 S  1.87311370E+01  0.033495
  1 S  2.82539370E+00  0.234727
  1 S  6.40121700E-01  0.813757

  2 S  1.61277800E-01  1.000000

  O (Oxygen)
  ----------
            Exponent  Coefficients 
       -------------- ---------------------------------------------------------
  1 S  5.48467170E+03  0.001831
  1 S  8.25234950E+02  0.013950
  1 S  1.88046960E+02  0.068445
  1 S  5.29645000E+01  0.232714
  1 S  1.68975700E+01  0.470193
  1 S  5.79963530E+00  0.358521

  2 S  1.55396160E+01 -0.110778
  2 S  3.59993360E+00 -0.148026
  2 S  1.01376180E+00  1.130767

  3 P  1.55396160E+01  0.070874
  3 P  3.59993360E+00  0.339753
  3 P  1.01376180E+00  0.727159

  4 S  2.70005800E-01  1.000000

  5 P  2.70005800E-01  1.000000



 Summary of "ao basis" -> "ao basis" (spherical)
 ------------------------------------------------------------------------------
       Tag                 Description            Shells   Functions and Types
 ---------------- ------------------------------  ------  ---------------------
 H                           6-31g                   2        2   2s
 O                           6-31g                   5        9   3s2p


                                 NWChem SCF Module
                                 -----------------



  ao basis        = "ao basis"
  functions       =    13
  atoms           =     3
  closed shells   =     5
  open shells     =     0
  charge          =   0.00
  wavefunction    = RHF 
  input vectors   = atomic
  output vectors  = ./water.movecs
  use symmetry    = F
  symmetry adapt  = F


 Summary of "ao basis" -> "ao basis" (spherical)
 ------------------------------------------------------------------------------
       Tag                 Description            Shells   Functions and Types
 ---------------- ------------------------------  ------  ---------------------
 H                           6-31g                   2        2   2s
 O                           6-31g                   5        9   3s2p



 Forming initial guess at       8.0s


      Superposition of Atomic Density Guess
      -------------------------------------

 Sum of atomic energies:         -75.75081731

      Non-variational initial energy
      ------------------------------

 Total energy =     -75.907424
 1-e energy   =    -121.628985
 2-e energy   =      36.593277
 HOMO         =      -0.466690
 LUMO         =       0.114298


 Starting SCF solution at       8.2s



 ----------------------------------------------
         Quadratically convergent ROHF

 Convergence threshold     :          1.000E-08
 Maximum no. of iterations :           30
 Final Fock-matrix accuracy:          1.000E-10
 ----------------------------------------------


              iter       energy          gnorm     gmax       time
             ----- ------------------- --------- --------- --------
                 1      -75.9451986225  8.07D-01  3.48D-01      1.1
                 2      -75.9795678568  2.01D-01  1.15D-01      1.2
                 3      -75.9825708478  2.52D-02  1.60D-02      1.2
                 4      -75.9826401697  2.34D-04  1.25D-04      1.3
                 5      -75.9826401757  2.19D-08  1.03D-08      1.4
                 6      -75.9826401757  3.62D-10  2.10D-10      1.4


       Final RHF  results 
       ------------------ 

         Total SCF energy =    -75.982640175708
      One-electron energy =   -122.847280759662
      Two-electron energy =     37.736356198798
 Nuclear repulsion energy =      9.128284385156

        Time for solution =      0.3s


             Final eigenvalues
             -----------------

              1      
    1  -20.5638
    2   -1.3553
    3   -0.7014
    4   -0.5646
    5   -0.5023
    6    0.2013
    7    0.2973
    8    1.0407
    9    1.1635
   10    1.1852
   11    1.2230
   12    1.3746
   13    1.7047

                       ROHF Final Molecular Orbital Analysis
                       -------------------------------------

 Vector    2  Occ=2.000000D+00  E=-1.355275D+00
              MO Center= -2.2D-16, -3.1D-19,  7.3D-02, r^2= 5.0D-01
   Bfn.  Coefficient  Atom+Function         Bfn.  Coefficient  Atom+Function  
  ----- ------------  ---------------      ----- ------------  ---------------
     8      0.480819  2 O  s                  4      0.468893  2 O  s          
     3     -0.212290  2 O  s          

 Vector    3  Occ=2.000000D+00  E=-7.013540D-01
              MO Center=  9.3D-17,  4.4D-32,  1.0D-01, r^2= 8.0D-01
   Bfn.  Coefficient  Atom+Function         Bfn.  Coefficient  Atom+Function  
  ----- ------------  ---------------      ----- ------------  ---------------
     5      0.505871  2 O  px                 9      0.273633  2 O  px         
     1      0.261306  1 H  s                 12     -0.261306  3 H  s          

 Vector    4  Occ=2.000000D+00  E=-5.645592D-01
              MO Center=  5.8D-16, -2.4D-18, -2.1D-01, r^2= 6.9D-01
   Bfn.  Coefficient  Atom+Function         Bfn.  Coefficient  Atom+Function  
  ----- ------------  ---------------      ----- ------------  ---------------
     7      0.546323  2 O  pz                11      0.396926  2 O  pz         
     8     -0.311570  2 O  s                  4     -0.184213  2 O  s          

 Vector    5  Occ=2.000000D+00  E=-5.022597D-01
              MO Center= -2.4D-35,  4.2D-18, -1.2D-01, r^2= 6.0D-01
   Bfn.  Coefficient  Atom+Function         Bfn.  Coefficient  Atom+Function  
  ----- ------------  ---------------      ----- ------------  ---------------
     6      0.642470  2 O  py                10      0.509084  2 O  py         

 Vector    6  Occ=0.000000D+00  E= 2.012887D-01
              MO Center=  1.6D-13,  2.1D-18,  6.4D-01, r^2= 2.5D+00
   Bfn.  Coefficient  Atom+Function         Bfn.  Coefficient  Atom+Function  
  ----- ------------  ---------------      ----- ------------  ---------------
     8      1.162180  2 O  s                  2     -0.983927  1 H  s          
    13     -0.983927  3 H  s                 11      0.486476  2 O  pz         
     7      0.237411  2 O  pz         

 Vector    7  Occ=0.000000D+00  E= 2.972583D-01
              MO Center= -1.5D-13,  1.5D-29,  6.1D-01, r^2= 2.7D+00
   Bfn.  Coefficient  Atom+Function         Bfn.  Coefficient  Atom+Function  
  ----- ------------  ---------------      ----- ------------  ---------------
     2      1.376220  1 H  s                 13     -1.376220  3 H  s          
     9     -0.814694  2 O  px                 5     -0.341337  2 O  px         

 Vector    8  Occ=0.000000D+00  E= 1.040744D+00
              MO Center= -2.1D-14, -1.4D-29,  1.4D-01, r^2= 1.6D+00
   Bfn.  Coefficient  Atom+Function         Bfn.  Coefficient  Atom+Function  
  ----- ------------  ---------------      ----- ------------  ---------------
     1      0.967477  1 H  s                 12     -0.967477  3 H  s          
     9     -0.706698  2 O  px                 2     -0.527061  1 H  s          
    13      0.527061  3 H  s          

 Vector    9  Occ=0.000000D+00  E= 1.163462D+00
              MO Center=  3.4D-30, -1.2D-15, -1.2D-01, r^2= 1.1D+00
   Bfn.  Coefficient  Atom+Function         Bfn.  Coefficient  Atom+Function  
  ----- ------------  ---------------      ----- ------------  ---------------
    10     -1.037728  2 O  py                 6      0.960874  2 O  py         

 Vector   10  Occ=0.000000D+00  E= 1.185188D+00
              MO Center=  1.5D-14,  1.2D-15,  2.5D-01, r^2= 1.2D+00
   Bfn.  Coefficient  Atom+Function         Bfn.  Coefficient  Atom+Function  
  ----- ------------  ---------------      ----- ------------  ---------------
     7     -0.769740  2 O  pz                 1      0.753926  1 H  s          
    12      0.753926  3 H  s                  2     -0.542014  1 H  s          
    13     -0.542014  3 H  s                 11      0.391635  2 O  pz         
     4     -0.215917  2 O  s                  8      0.205152  2 O  s          

 Vector   11  Occ=0.000000D+00  E= 1.222994D+00
              MO Center= -9.5D-15, -3.8D-17, -2.2D-01, r^2= 1.3D+00
   Bfn.  Coefficient  Atom+Function         Bfn.  Coefficient  Atom+Function  
  ----- ------------  ---------------      ----- ------------  ---------------
    11      1.132073  2 O  pz                 1     -0.636036  1 H  s          
    12     -0.636036  3 H  s                  7     -0.610862  2 O  pz         
     4      0.517093  2 O  s                  2      0.154263  1 H  s          
    13      0.154263  3 H  s          

 Vector   12  Occ=0.000000D+00  E= 1.374624D+00
              MO Center=  2.8D-14,  7.7D-30, -7.2D-02, r^2= 1.4D+00
   Bfn.  Coefficient  Atom+Function         Bfn.  Coefficient  Atom+Function  
  ----- ------------  ---------------      ----- ------------  ---------------
     9      1.525779  2 O  px                 5     -1.031545  2 O  px         
     2     -0.898168  1 H  s                 13      0.898168  3 H  s          

 Vector   13  Occ=0.000000D+00  E= 1.704724D+00
              MO Center= -1.9D-14,  1.7D-18,  2.2D-01, r^2= 1.2D+00
   Bfn.  Coefficient  Atom+Function         Bfn.  Coefficient  Atom+Function  
  ----- ------------  ---------------      ----- ------------  ---------------
     8      2.743079  2 O  s                  4     -1.657134  2 O  s          
    11      0.915089  2 O  pz                 2     -0.593229  1 H  s          
    13     -0.593229  3 H  s                  1     -0.506753  1 H  s          
    12     -0.506753  3 H  s                  7     -0.209053  2 O  pz         


 center of mass
 --------------
 x =   0.00000000 y =   0.00000000 z =  -0.10116966

 moments of inertia (a.u.)
 ------------------
           2.361377023032           0.000000000000           0.000000000000
           0.000000000000           6.403442213143           0.000000000000
           0.000000000000           0.000000000000           4.042065190111

  Mulliken analysis of the total density
  --------------------------------------

    Atom       Charge   Shell Charges
 -----------   ------   -------------------------------------------------------
    1 H    1     0.61   0.51  0.10
    2 O    8     8.79   2.00  0.91  2.88  1.00  2.00
    3 H    1     0.61   0.51  0.10

       Multipole analysis of the density wrt the origin
       ------------------------------------------------

     L   x y z        total         open         nuclear
     -   - - -        -----         ----         -------
     0   0 0 0     -0.000000      0.000000     10.000000

     1   1 0 0     -0.000000      0.000000      0.000000
     1   0 1 0     -0.000000      0.000000      0.000000
     1   0 0 1      1.053053      0.000000      0.000000

     2   2 0 0     -3.212785      0.000000      4.010682
     2   1 1 0     -0.000000      0.000000      0.000000
     2   1 0 1     -0.000000      0.000000      0.000000
     2   0 2 0     -5.368675      0.000000      0.000000
     2   0 1 1      0.000000      0.000000      0.000000
     2   0 0 2     -4.523081      0.000000      2.110647

 ------------------------------------
     Number of active orbitals     13
     Number of active alpha electrons      5
     Number of active beta electrons       5
 ------------------------------------
                   NWChem Extensible Many-Electron Theory Module
                   ---------------------------------------------

              ======================================================
                   This portion of the program was automatically
                  generated by a Tensor Contraction Engine (TCE).
                  The development of this portion of the program
                 and TCE was supported by US Department of Energy,
                Office of Science, Office of Basic Energy Science.
                      TCE is a product of Battelle and PNNL.
              Please cite: S.Hirata, J.Phys.Chem.A 107, 9887 (2003).
              ======================================================

            General Information
            -------------------
      Number of processors :     4
         Wavefunction type : Restricted Hartree-Fock
          No. of electrons :    10
           Alpha electrons :     5
            Beta electrons :     5
           No. of orbitals :    26
            Alpha orbitals :    13
             Beta orbitals :    13
        Alpha frozen cores :     0
         Beta frozen cores :     0
     Alpha frozen virtuals :     0
      Beta frozen virtuals :     0
         Spin multiplicity : singlet 
    Number of AO functions :    13
       Number of AO shells :     9
        Use of symmetry is : off
      Symmetry adaption is : off
         Schwarz screening : 0.10D-09

          Correlation Information
          -----------------------
          Calculation type : Second-order tensor many-body perturbation theory           
   Perturbative correction : none                                                        
            Max iterations :      150
        Residual threshold : 0.10D-06
     T(0) DIIS level shift : 0.00D+00
     L(0) DIIS level shift : 0.00D+00
     T(1) DIIS level shift : 0.00D+00
     L(1) DIIS level shift : 0.00D+00
     T(R) DIIS level shift : 0.00D+00
     T(I) DIIS level shift : 0.00D+00
   CC-T/L Amplitude update :  5-th order DIIS
                I/O scheme : Global Array Library
        L-threshold :  0.10D-06
        EOM-threshold :  0.10D-06
 no EOMCCSD initial starts read in
 TCE RESTART OPTIONS
 READ_INT:   F
 WRITE_INT:  F
 READ_TA:    F
 WRITE_TA:   F
 READ_XA:    F
 WRITE_XA:   F
 READ_IN3:   F
 WRITE_IN3:  F
 SLICE:      F
 D4D5:       F
 quantumc:   T
 qrotation:  F
 pwtce:      F
 qducc:      F
 nacto:                         0
 nrotv:                         0
 nrot:                          0

            Memory Information
            ------------------
          Available GA space size is    ********** doubles
          Available MA space size is    3355442020 doubles

 Maximum block size supplied by input
 Maximum block size         1 doubles

 tile_dim =      1

 Block   Spin    Irrep     Size     Offset   Alpha
 -------------------------------------------------
   1    alpha     a      1 doubles       0       1
   2    alpha     a      1 doubles       1       2
   3    alpha     a      1 doubles       2       3
   4    alpha     a      1 doubles       3       4
   5    alpha     a      1 doubles       4       5
   6    beta      a      1 doubles       5       1
   7    beta      a      1 doubles       6       2
   8    beta      a      1 doubles       7       3
   9    beta      a      1 doubles       8       4
  10    beta      a      1 doubles       9       5
  11    alpha     a      1 doubles      10      11
  12    alpha     a      1 doubles      11      12
  13    alpha     a      1 doubles      12      13
  14    alpha     a      1 doubles      13      14
  15    alpha     a      1 doubles      14      15
  16    alpha     a      1 doubles      15      16
  17    alpha     a      1 doubles      16      17
  18    alpha     a      1 doubles      17      18
  19    beta      a      1 doubles      18      11
  20    beta      a      1 doubles      19      12
  21    beta      a      1 doubles      20      13
  22    beta      a      1 doubles      21      14
  23    beta      a      1 doubles      22      15
  24    beta      a      1 doubles      23      16
  25    beta      a      1 doubles      24      17
  26    beta      a      1 doubles      25      18

 Global array virtual files algorithm will be used

 Parallel file system coherency ......... OK

 Fock matrix recomputed
 1-e file size   =              169
 1-e file name   = ./water.f1
 Cpu & wall time / sec            0.0            0.0
 4-electron integrals stored in orbital form

 v2    file size   =             4186
 4-index algorithm nr.  13 is used
 imaxsize =       30
 imaxsize ichop =        0
 begin_one_electron_integrals
    1    1       -33.0173041497
    2    1         0.5778376067
    4    1        -0.2014041436
    6    1         0.1860619362
   10    1        -0.1254497298
   11    1         0.2523428230
   13    1        -0.4351946113
    1    2         0.5778376067
    2    2        -7.8301451340
    4    2         0.2771761138
    6    2        -1.0401525280
   10    2         0.6338542882
   11    2        -0.5373255430
   13    2         1.2629814088
    3    3        -6.6092245636
    7    3         1.3943460733
    8    3         0.1127140756
   12    3         1.6054949692
    1    4        -0.2014041436
    2    4         0.2771761138
    4    4        -6.8709998954
    6    4        -0.7074831950
   10    4         1.3103686532
   11    4         1.4776443926
   13    4        -0.2693557177
    5    5        -7.0959666372
    9    5        -2.1257070152
    1    6         0.1860619362
    2    6        -1.0401525280
    4    6        -0.7074831950
    6    6        -3.6304509230
   10    6         1.3145578162
   11    6        -0.0681721901
   13    6         0.9362238439
    3    7         1.3943460733
    7    7        -3.6560207669
    8    7        -0.8055567707
   12    7        -1.5895634409
    3    8         0.1127140756
    7    8        -0.8055567707
    8    8        -3.6034745858
   12    8        -0.3933365700
    5    9        -2.1257070152
    9    9        -5.2766316442
    1   10        -0.1254497298
    2   10         0.6338542882
    4   10         1.3103686532
    6   10         1.3145578162
   10   10        -4.9488621645
   11   10        -0.7653903538
   13   10        -0.4412361806
    1   11         0.2523428230
    2   11        -0.5373255430
    4   11         1.4776443926
    6   11        -0.0681721901
   10   11        -0.7653903538
   11   11        -4.3070917277
   13   11         0.3707174088
    3   12         1.6054949692
    7   12        -1.5895634409
    8   12        -0.3933365700
   12   12        -5.2401061734
    1   13        -0.4351946113
    2   13         1.2629814088
    4   13        -0.2693557177
    6   13         0.9362238439
   10   13        -0.4412361806
   11   13         0.3707174088
   13   13        -4.1361509301
 end_one_electron_integrals
 begin_two_electron_integrals
    1    1    1    1        4.7397406550
    2    1    1    1       -0.4275809206
    2    1    2    1        0.0631426312
    3    1    3    1        0.0194076923
    4    1    1    1        0.1532665825
    4    1    2    1       -0.0176600406
    4    1    4    1        0.0304372259
    4    1    2    2        0.0166136972
    4    1    3    3        0.0062432756
    5    1    5    1        0.0302320119
    6    1    1    1       -0.1477063323
    6    1    2    1        0.0238344758
    6    1    4    1        0.0016683471
    6    1    6    1        0.0117319167
    6    1    2    2       -0.0003086383
    6    1    4    2        0.0107471907
    6    1    3    3       -0.0006438006
    6    1    4    4       -0.0095501302
    6    1    5    5       -0.0033456847
    7    1    3    1       -0.0129172766
    7    1    7    1        0.0086008402
    7    1    3    2       -0.0147329605
    7    1    4    3        0.0031144417
    7    1    6    3       -0.0024809073
    8    1    3    1       -0.0043585696
    8    1    7    1        0.0029065213
    8    1    8    1        0.0009927334
    8    1    3    2       -0.0049458765
    8    1    7    2        0.0025611482
    8    1    4    3        0.0015049490
    8    1    6    3       -0.0007313490
    8    1    7    4       -0.0015962843
    8    1    7    6        0.0011008373
    9    1    5    1        0.0375633054
    9    1    9    1        0.0468473050
    9    1    5    2        0.0341294703
    9    1    5    4       -0.0123053217
    9    1    6    5        0.0096205980
   10    1    1    1        0.1000873336
   10    1    2    1       -0.0203832703
   10    1    4    1       -0.0212212136
   10    1    6    1       -0.0165096229
   10    1   10    1        0.0351291018
   10    1    2    2       -0.0085477796
   10    1    4    2       -0.0251726802
   10    1    6    2       -0.0090031249
   10    1    3    3       -0.0021153754
   10    1    7    3       -0.0029738637
   10    1    8    3       -0.0066512481
   10    1    4    4        0.0188286224
   10    1    6    4       -0.0019109255
   10    1    5    5        0.0022067796
   10    1    9    5        0.0028116763
   10    1    6    6       -0.0067381491
   10    1    7    7       -0.0000504134
   10    1    8    7        0.0017154836
   10    1    8    8       -0.0023695740
   10    1    9    9        0.0035789369
   11    1    1    1       -0.2018396525
   11    1    2    1        0.0254816790
   11    1    4    1       -0.0306231780
   11    1    6    1        0.0019314577
   11    1   10    1        0.0166753966
   11    1   11    1        0.0320481969
   11    1    2    2       -0.0156761626
   11    1    4    2       -0.0160470902
   11    1    6    2       -0.0102220593
   11    1   10    2        0.0144581075
   11    1    3    3       -0.0060440835
   11    1    7    3        0.0007261408
   11    1    8    3       -0.0039635842
   11    1    4    4        0.0076287274
   11    1    6    4       -0.0022720690
   11    1   10    4        0.0008652087
   11    1    5    5       -0.0043931438
   11    1    9    5       -0.0056338695
   11    1    6    6       -0.0069606548
   11    1   10    6        0.0086674575
   11    1    7    7       -0.0019760393
   11    1    8    7        0.0005722752
   11    1    8    8       -0.0021474304
   11    1    9    9       -0.0071215273
   11    1   10   10       -0.0136413567
   12    1    3    1       -0.0317801204
   12    1    7    1        0.0211687902
   12    1    8    1        0.0071355541
   12    1   12    1        0.0523236565
   12    1    3    2       -0.0328497318
   12    1    7    2        0.0165147298
   12    1    8    2        0.0040955424
   12    1    4    3        0.0068159998
   12    1    6    3       -0.0057667641
   12    1   10    3        0.0000294682
   12    1   11    3       -0.0050993660
   12    1    7    4       -0.0086988351
   12    1    8    4       -0.0098646681
   12    1    7    6        0.0076887097
   12    1    8    6       -0.0001073206
   12    1   10    7       -0.0031025056
   12    1   11    7        0.0061494465
   12    1   10    8       -0.0067829971
   12    1   11    8        0.0054917522
   13    1    1    1        0.3483919963
   13    1    2    1       -0.0520981503
   13    1    4    1        0.0121343232
   13    1    6    1       -0.0204412240
   13    1   10    1        0.0194567949
   13    1   11    1       -0.0187904436
   13    1   13    1        0.0435443692
   13    1    2    2        0.0091666854
   13    1    4    2       -0.0082320903
   13    1    6    2        0.0023540202
   13    1   10    2       -0.0006739831
   13    1   11    2        0.0065051879
   13    1    3    3        0.0044087412
   13    1    7    3       -0.0038971321
   13    1    8    3       -0.0025738492
   13    1   12    3       -0.0085904687
   13    1    4    4        0.0113543390
   13    1    6    4        0.0006409149
   13    1   10    4       -0.0070787083
   13    1   11    4       -0.0098905326
   13    1    5    5        0.0086580310
   13    1    9    5        0.0104975051
   13    1    6    6        0.0009241203
   13    1   10    6       -0.0022000941
   13    1   11    6        0.0000623524
   13    1    7    7        0.0021542454
   13    1    8    7        0.0011280106
   13    1   12    7        0.0057512305
   13    1    8    8       -0.0002401284
   13    1   12    8        0.0016469238
   13    1    9    9        0.0132915489
   13    1   10   10        0.0069941248
   13    1   11   10        0.0072514851
   13    1   11   11        0.0103714447
   13    1   12   12        0.0145789255
    2    2    1    1        1.0417444842
    2    2    2    1       -0.0131072456
    2    2    2    2        0.7553149831
    3    2    3    1        0.0226651510
    3    2    3    2        0.1469017772
    4    2    1    1       -0.0912712941
    4    2    2    1        0.0087682568
    4    2    4    1        0.0210819380
    4    2    2    2        0.0204723259
    4    2    4    2        0.1154361970
    4    2    3    3        0.0081170117
    5    2    5    1        0.0301756492
    5    2    5    2        0.1295794633
    6    2    1    1        0.2221076699
    6    2    2    1       -0.0040621288
    6    2    4    1        0.0115743580
    6    2    6    1        0.0019885348
    6    2    2    2        0.1165392580
    6    2    4    2        0.0186870229
    6    2    6    2        0.0453856975
    6    2    3    3        0.0764033058
    6    2    4    4        0.0726947827
    6    2    5    5        0.1040800813
    7    2    3    1       -0.0111969721
    7    2    7    1        0.0073611919
    7    2    3    2       -0.0391935686
    7    2    7    2        0.0261156392
    7    2    4    3        0.0159042153
    7    2    6    3       -0.0133189305
    8    2    3    1       -0.0026221542
    8    2    7    1        0.0018362756
    8    2    8    1        0.0008401022
    8    2    3    2        0.0167421122
    8    2    7    2        0.0128367583
    8    2    8    2        0.0353595119
    8    2    4    3        0.0330753580
    8    2    6    3       -0.0092913541
    8    2    7    4       -0.0000077555
    8    2    7    6       -0.0162719649
    9    2    5    1        0.0189894455
    9    2    9    1        0.0219921344
    9    2    5    2        0.0393998906
    9    2    9    2        0.0374297270
    9    2    5    4       -0.0134044399
    9    2    6    5        0.0176638923
   10    2    1    1       -0.1660914188
   10    2    2    1        0.0024987953
   10    2    4    1       -0.0167121828
   10    2    6    1       -0.0044145665
   10    2   10    1        0.0152814592
   10    2    2    2       -0.0625245362
   10    2    4    2       -0.0143170726
   10    2    6    2       -0.0417902912
   10    2   10    2        0.0641445373
   10    2    3    3       -0.0147656504
   10    2    7    3        0.0312550777
   10    2    8    3        0.0314288018
   10    2    4    4       -0.0234376074
   10    2    6    4       -0.0262594680
   10    2    5    5       -0.0674666126
   10    2    9    5       -0.0413152739
   10    2    6    6       -0.0082100780
   10    2    7    7        0.0022454061
   10    2    8    7        0.0039884047
   10    2    8    8        0.0349260418
   10    2    9    9       -0.0545760208
   11    2    1    1        0.1436012722
   11    2    2    1       -0.0077016200
   11    2    4    1       -0.0062167723
   11    2    6    1       -0.0054606482
   11    2   10    1        0.0104632641
   11    2   11    1        0.0042061742
   11    2    2    2        0.0376816313
   11    2    4    2       -0.0280596366
   11    2    6    2        0.0109019225
   11    2   10    2       -0.0100285375
   11    2   11    2        0.0316111251
   11    2    3    3        0.0176737588
   11    2    7    3       -0.0229108938
   11    2    8    3       -0.0235526671
   11    2    4    4        0.0539381842
   11    2    6    4        0.0065583061
   11    2   10    4       -0.0357988359
   11    2    5    5        0.0617703759
   11    2    9    5        0.0381103027
   11    2    6    6        0.0047528575
   11    2   10    6       -0.0038851702
   11    2    7    7        0.0101247250
   11    2    8    7        0.0026682142
   11    2    8    8       -0.0188202000
   11    2    9    9        0.0483383105
   11    2   10   10        0.0040517439
   12    2    3    1       -0.0154067884
   12    2    7    1        0.0101458294
   12    2    8    1        0.0034674496
   12    2   12    1        0.0232967536
   12    2    3    2       -0.0258893825
   12    2    7    2        0.0241353779
   12    2    8    2        0.0111436790
   12    2   12    2        0.0398396170
   12    2    4    3        0.0130306352
   12    2    6    3       -0.0200392423
   12    2   10    3        0.0174906011
   12    2   11    3       -0.0186145286
   12    2    7    4       -0.0020726141
   12    2    8    4        0.0024123772
   12    2    7    6       -0.0037894984
   12    2    8    6        0.0021494398
   12    2   10    7       -0.0000642911
   12    2   11    7        0.0066328691
   12    2   10    8        0.0197139755
   12    2   11    8       -0.0015382297
   13    2    1    1       -0.3354325384
   13    2    2    1        0.0121449393
   13    2    4    1       -0.0090208576
   13    2    6    1        0.0024743144
   13    2   10    1        0.0020621957
   13    2   11    1        0.0094611581
   13    2   13    1       -0.0086850934
   13    2    2    2       -0.1113615026
   13    2    4    2        0.0089514121
   13    2    6    2       -0.0391067192
   13    2   10    2        0.0302938345
   13    2   11    2       -0.0131114171
   13    2   13    2        0.0701070849
   13    2    3    3       -0.0906605659
   13    2    7    3        0.0454354404
   13    2    8    3        0.0048127191
   13    2   12    3        0.0692351733
   13    2    4    4       -0.0956802866
   13    2    6    4       -0.0239660398
   13    2   10    4        0.0520955063
   13    2   11    4        0.0570413628
   13    2    5    5       -0.0995284072
   13    2    9    5       -0.0887204141
   13    2    6    6       -0.0266073613
   13    2   10    6        0.0397875428
   13    2   11    6        0.0003493108
   13    2    7    7       -0.0336795559
   13    2    8    7       -0.0156220622
   13    2   12    7       -0.0485100156
   13    2    8    8       -0.0301731781
   13    2   12    8       -0.0196732614
   13    2    9    9       -0.0827503524
   13    2   10   10       -0.0887830391
   13    2   11   10       -0.0253527246
   13    2   11   11       -0.0548968747
   13    2   12   12       -0.1042771026
    3    3    1    1        0.8666553777
    3    3    2    1       -0.0064147023
    3    3    2    2        0.6695002043
    3    3    3    3        0.6495624832
    4    3    3    1       -0.0043819768
    4    3    3    2        0.0120860690
    4    3    4    3        0.0421035338
    5    3    5    3        0.0282360758
    6    3    3    1        0.0038120303
    6    3    3    2       -0.0097182957
    6    3    4    3       -0.0083869481
    6    3    6    3        0.0262777291
    7    3    1    1       -0.2807759725
    7    3    2    1        0.0052434387
    7    3    4    1        0.0001137247
    7    3    6    1        0.0022503990
    7    3    2    2       -0.1310868905
    7    3    4    2        0.0377415550
    7    3    6    2       -0.0389646027
    7    3    3    3       -0.1085567630
    7    3    7    3        0.0729685761
    7    3    4    4       -0.1294313135
    7    3    6    4       -0.0346156714
    7    3    5    5       -0.1377852840
    7    3    6    6       -0.0091301012
    8    3    1    1       -0.0558110337
    8    3    2    1        0.0030307023
    8    3    4    1        0.0054922484
    8    3    6    1        0.0030511604
    8    3    2    2        0.0242435068
    8    3    4    2        0.0646948487
    8    3    6    2       -0.0031275728
    8    3    3    3        0.0353220679
    8    3    7    3        0.0355517426
    8    3    8    3        0.0800282324
    8    3    4    4       -0.0167458798
    8    3    6    4       -0.0182546412
    8    3    5    5       -0.0211043189
    8    3    6    6        0.0315546063
    8    3    7    7        0.0208808919
    9    3    5    3        0.0059149052
    9    3    9    3        0.0129143557
    9    3    7    5       -0.0069389437
    9    3    8    5       -0.0002366409
   10    3    3    1        0.0002206567
   10    3    7    1       -0.0001594178
   10    3    8    1       -0.0001665569
   10    3    3    2        0.0490614905
   10    3    7    2        0.0076168340
   10    3    8    2        0.0355229017
   10    3    4    3        0.0231488139
   10    3    6    3       -0.0253627104
   10    3   10    3        0.0629506049
   10    3    7    4        0.0214924374
   10    3    8    4        0.0415653850
   10    3    7    6       -0.0326066223
   10    3    8    6       -0.0116548751
   11    3    3    1        0.0030652515
   11    3    7    1       -0.0021812536
   11    3    8    1       -0.0009934284
   11    3    3    2       -0.0309432607
   11    3    7    2       -0.0062398344
   11    3    8    2       -0.0228083060
   11    3    4    3       -0.0244592164
   11    3    6    3        0.0156173834
   11    3   10    3       -0.0318776202
   11    3   11    3        0.0335229191
   11    3    7    4       -0.0059655968
   11    3    8    4       -0.0254314073
   11    3    7    6        0.0219559214
   11    3    8    6        0.0020601670
   11    3   10    7       -0.0134571623
   11    3   10    8       -0.0589580881
   12    3    1    1       -0.4030455466
   12    3    2    1        0.0116912610
   12    3    4    1       -0.0040961844
   12    3    6    1        0.0037192033
   12    3   10    1       -0.0025054203
   12    3   11    1        0.0050973536
   12    3    2    2       -0.1315042662
   12    3    4    2        0.0242860912
   12    3    6    2       -0.0487290711
   12    3   10    2        0.0433802943
   12    3   11    2       -0.0372061133
   12    3    3    3       -0.0986371012
   12    3    7    3        0.0689270573
   12    3    8    3        0.0282727406
   12    3   12    3        0.1090305003
   12    3    4    4       -0.1195811378
   12    3    6    4       -0.0286467707
   12    3   10    4        0.0733948791
   12    3   11    4        0.0615807926
   12    3    5    5       -0.1353882360
   12    3    9    5       -0.0993968950
   12    3    6    6       -0.0234644544
   12    3   10    6        0.0357349990
   12    3   11    6        0.0090936392
   12    3    7    7       -0.0366578401
   12    3    8    7       -0.0153872998
   12    3    8    8       -0.0002944447
   12    3    9    9       -0.1119307141
   12    3   10   10       -0.0716787528
   12    3   11   10       -0.0499804893
   12    3   11   11       -0.0626442855
   13    3    3    1       -0.0112732016
   13    3    7    1        0.0073876563
   13    3    8    1        0.0024798583
   13    3   12    1        0.0169842760
   13    3    3    2       -0.0320632658
   13    3    7    2        0.0129583129
   13    3    8    2       -0.0056454024
   13    3   12    2        0.0242004107
   13    3    4    3       -0.0017175093
   13    3    6    3       -0.0048354317
   13    3   10    3       -0.0071200534
   13    3   11    3        0.0005631487
   13    3   13    3        0.0246546935
   13    3    7    4       -0.0068820918
   13    3    8    4       -0.0102229000
   13    3   12    4       -0.0090686856
   13    3    7    6        0.0133951683
   13    3    8    6        0.0049664135
   13    3   12    6        0.0070010272
   13    3   10    7       -0.0061091208
   13    3   11    7        0.0076303103
   13    3   10    8       -0.0171706281
   13    3   11    8        0.0167610492
   13    3   12   10       -0.0144058441
   13    3   12   11        0.0107135748
    4    4    1    1        0.9778601283
    4    4    2    1       -0.0137684307
    4    4    4    1       -0.0114891079
    4    4    2    2        0.6647396071
    4    4    4    2       -0.0825169515
    4    4    3    3        0.5974262575
    4    4    4    4        0.7320287535
    5    4    5    1       -0.0108396790
    5    4    5    2       -0.0367523457
    5    4    5    4        0.0459363510
    6    4    1    1        0.1389586183
    6    4    2    1       -0.0011833835
    6    4    4    1        0.0024949561
    6    4    6    1        0.0003916663
    6    4    2    2        0.0697799116
    6    4    4    2       -0.0133203330
    6    4    6    2        0.0256793192
    6    4    3    3        0.0435959550
    6    4    4    4        0.0766950016
    6    4    6    4        0.0284921593
    6    4    5    5        0.0693292378
    7    4    3    1        0.0059211612
    7    4    7    1       -0.0039683643
    7    4    3    2        0.0395231129
    7    4    7    2       -0.0075766621
    7    4    4    3       -0.0073377934
    7    4    6    3       -0.0151010493
    7    4    7    4        0.0243702837
    8    4    3    1        0.0069495316
    8    4    7    1       -0.0045391693
    8    4    8    1       -0.0016093297
    8    4    3    2        0.0688220706
    8    4    7    2       -0.0108863162
    8    4    8    2        0.0166065984
    8    4    4    3        0.0072277799
    8    4    6    3       -0.0161568070
    8    4    7    4        0.0267767066
    8    4    8    4        0.0480302964
    8    4    7    6       -0.0303683760
    9    4    5    1       -0.0075051349
    9    4    9    1       -0.0086936066
    9    4    5    2       -0.0164619075
    9    4    9    2       -0.0098303433
    9    4    5    4        0.0140638290
    9    4    9    4        0.0188253590
    9    4    6    5       -0.0011395356
   10    4    1    1       -0.3246649657
   10    4    2    1        0.0092555846
   10    4    4    1        0.0004675699
   10    4    6    1        0.0040839718
   10    4   10    1       -0.0054336404
   10    4    2    2       -0.1020098257
   10    4    4    2        0.0353021209
   10    4    6    2       -0.0393282709
   10    4   10    2        0.0431620652
   10    4    3    3       -0.0581933482
   10    4    7    3        0.0542759260
   10    4    8    3        0.0414148757
   10    4    4    4       -0.1249896245
   10    4    6    4       -0.0350069630
   10    4   10    4        0.0861885963
   10    4    5    5       -0.1151610563
   10    4    9    5       -0.0797833985
   10    4    6    6       -0.0150292227
   10    4    7    7       -0.0187884708
   10    4    8    7       -0.0070911266
   10    4    8    8        0.0183546127
   10    4    9    9       -0.0948322298
   11    4    1    1       -0.3456705265
   11    4    2    1        0.0121340803
   11    4    4    1        0.0061240133
   11    4    6    1        0.0073114804
   11    4   10    1       -0.0130153079
   11    4   11    1       -0.0036167082
   11    4    2    2       -0.1295629403
   11    4    4    2        0.0234107208
   11    4    6    2       -0.0285872641
   11    4   10    2        0.0003541539
   11    4   11    2       -0.0281090965
   11    4    3    3       -0.1163258837
   11    4    7    3        0.0420529287
   11    4    8    3       -0.0064228637
   11    4    4    4       -0.1364125378
   11    4    6    4       -0.0170692244
   11    4   10    4        0.0594236489
   11    4   11    4        0.0935934328
   11    4    5    5       -0.1279210417
   11    4    9    5       -0.0861395615
   11    4    6    6       -0.0346540185
   11    4   10    6        0.0427617987
   11    4    7    7       -0.0480691245
   11    4    8    7       -0.0215645487
   11    4    8    8       -0.0600668347
   11    4    9    9       -0.1035460606
   11    4   10   10       -0.1148121280
   12    4    3    1        0.0058226573
   12    4    7    1       -0.0039781515
   12    4    8    1       -0.0016428912
   12    4   12    1       -0.0089056916
   12    4    3    2        0.0180942246
   12    4    7    2       -0.0050002152
   12    4    8    2        0.0050165566
   12    4   12    2       -0.0088121831
   12    4    4    3       -0.0054269452
   12    4    6    3       -0.0021053820
   12    4   10    3        0.0179556629
   12    4   11    3        0.0055553051
   12    4    7    4        0.0102506017
   12    4    8    4        0.0092207556
   12    4   12    4        0.0201565404
   12    4    7    6       -0.0037055407
   12    4    8    6       -0.0061661600
   12    4   10    7        0.0001766639
   12    4   11    7       -0.0100818710
   12    4   10    8        0.0116418544
   12    4   11    8       -0.0170738100
   13    4    1    1        0.0611652015
   13    4    2    1       -0.0046027838
   13    4    4    1       -0.0093490808
   13    4    6    1       -0.0051319725
   13    4   10    1        0.0120052320
   13    4   11    1        0.0073774746
   13    4   13    1        0.0043405884
   13    4    2    2        0.0210038879
   13    4    4    2       -0.0142035898
   13    4    6    2       -0.0011298260
   13    4   10    2        0.0121138487
   13    4   11    2        0.0219056047
   13    4   13    2        0.0014513913
   13    4    3    3        0.0170196890
   13    4    7    3       -0.0079341634
   13    4    8    3       -0.0021698923
   13    4   12    3       -0.0148011286
   13    4    4    4        0.0378828301
   13    4    6    4       -0.0019684071
   13    4   10    4       -0.0138506010
   13    4   11    4       -0.0211543693
   13    4   13    4        0.0256358696
   13    4    5    5        0.0269707015
   13    4    9    5        0.0166269866
   13    4    6    6        0.0046961417
   13    4   10    6       -0.0003166522
   13    4   11    6       -0.0068366795
   13    4    7    7        0.0085492235
   13    4    8    7        0.0035196292
   13    4   12    7        0.0109923552
   13    4    8    8        0.0020127120
   13    4   12    8        0.0084698142
   13    4    9    9        0.0218332370
   13    4   10   10        0.0076676438
   13    4   11   10        0.0093497838
   13    4   11   11        0.0215980406
   13    4   12   12        0.0172046697
    5    5    1    1        1.0422131877
    5    5    2    1       -0.0114302181
    5    5    4    1        0.0037296623
    5    5    2    2        0.7113235279
    5    5    4    2       -0.0455746203
    5    5    3    3        0.6138967365
    5    5    4    4        0.6641366332
    5    5    5    5        0.7645506654
    6    5    5    1        0.0084142387
    6    5    5    2        0.0261625622
    6    5    5    4        0.0005708303
    6    5    6    5        0.0127165168
    7    5    5    3       -0.0129209721
    7    5    7    5        0.0084212815
    8    5    5    3       -0.0104106301
    8    5    7    5        0.0052210829
    8    5    8    5        0.0076580273
    9    5    1    1        0.5084966037
    9    5    2    1       -0.0139148614
    9    5    4    1        0.0046611109
    9    5    6    1       -0.0043556265
    9    5    2    2        0.1884306551
    9    5    4    2       -0.0242964983
    9    5    6    2        0.0582726836
    9    5    3    3        0.1412847026
    9    5    7    3       -0.0699364081
    9    5    8    3       -0.0139477069
    9    5    4    4        0.1695731620
    9    5    6    4        0.0335465299
    9    5    5    5        0.2070786985
    9    5    9    5        0.1589758983
    9    5    6    6        0.0445487867
    9    5    7    7        0.0537531673
    9    5    8    7        0.0262653684
    9    5    8    8        0.0471856689
   10    5    5    1       -0.0078049241
   10    5    9    1       -0.0088481760
   10    5    5    2       -0.0361731676
   10    5    9    2       -0.0109944434
   10    5    5    4       -0.0022898906
   10    5    9    4       -0.0070042010
   10    5    6    5       -0.0111176919
   10    5   10    5        0.0215055916
   10    5    9    6       -0.0152508978
   11    5    5    1        0.0120462010
   11    5    9    1        0.0138322033
   11    5    5    2        0.0363741316
   11    5    9    2        0.0172355378
   11    5    5    4       -0.0145868983
   11    5    9    4       -0.0179418779
   11    5    6    5        0.0078257073
   11    5   10    5       -0.0030505003
   11    5   11    5        0.0228508369
   11    5    9    6        0.0075305281
   11    5   10    9       -0.0000205098
   12    5    5    3       -0.0090840573
   12    5    9    3       -0.0142517093
   12    5    7    5        0.0077226279
   12    5    8    5        0.0003676700
   12    5   12    5        0.0170252806
   12    5    9    7        0.0061656078
   12    5    9    8        0.0068201647
   13    5    5    1       -0.0111496784
   13    5    9    1       -0.0132949973
   13    5    5    2        0.0073813159
   13    5    9    2       -0.0306603334
   13    5    5    4        0.0014778459
   13    5    9    4        0.0060106214
   13    5    6    5       -0.0097168137
   13    5   10    5       -0.0035333728
   13    5   11    5       -0.0048173525
   13    5   13    5        0.0452005427
   13    5    9    6        0.0070305166
   13    5   10    9        0.0141330002
   13    5   11    9       -0.0075833782
    6    6    1    1        0.4546191909
    6    6    2    1       -0.0018940068
    6    6    4    1        0.0080907558
    6    6    6    1        0.0018316415
    6    6    2    2        0.4028586726
    6    6    4    2        0.0356136286
    6    6    6    2        0.0240385930
    6    6    3    3        0.3873854884
    6    6    4    4        0.3623199629
    6    6    6    4        0.0015383659
    6    6    5    5        0.3709885115
    6    6    6    6        0.3394126709
    7    6    3    1       -0.0053352757
    7    6    7    1        0.0033729832
    7    6    3    2       -0.0574490099
    7    6    7    2       -0.0051500347
    7    6    4    3       -0.0226977796
    7    6    6    3        0.0341039591
    7    6    7    4       -0.0288133873
    7    6    7    6        0.0872498390
    8    6    3    1        0.0001184448
    8    6    7    1       -0.0000693568
    8    6    8    1       -0.0000643554
    8    6    3    2        0.0024767163
    8    6    7    2       -0.0031015969
    8    6    8    2       -0.0126519437
    8    6    4    3       -0.0084363759
    8    6    6    3       -0.0043348454
    8    6    7    4        0.0038226400
    8    6    8    4       -0.0007393347
    8    6    7    6       -0.0124237444
    8    6    8    6        0.0170488358
    9    6    5    1        0.0090311277
    9    6    9    1        0.0103285388
    9    6    5    2        0.0389429913
    9    6    9    2        0.0068870376
    9    6    5    4       -0.0056319711
    9    6    9    4       -0.0012875443
    9    6    6    5        0.0047501500
    9    6    9    6        0.0195591075
   10    6    1    1       -0.2435602913
   10    6    2    1        0.0037335659
   10    6    4    1       -0.0097528429
   10    6    6    1       -0.0016052659
   10    6   10    1        0.0074617644
   10    6    2    2       -0.1406680054
   10    6    4    2       -0.0245112287
   10    6    6    2       -0.0354449217
   10    6   10    2        0.0195236960
   10    6    3    3       -0.1156568994
   10    6    7    3        0.0265899294
   10    6    8    3       -0.0234115203
   10    6    4    4       -0.1056895650
   10    6    6    4       -0.0180408236
   10    6   10    4        0.0279380048
   10    6    5    5       -0.1165977867
   10    6    9    5       -0.0568366796
   10    6    6    6       -0.0486339448
   10    6   10    6        0.0513999604
   10    6    7    7       -0.0452814902
   10    6    8    7       -0.0244884191
   10    6    8    8       -0.0778342480
   10    6    9    9       -0.0938766742
   11    6    1    1       -0.0086953031
   11    6    2    1        0.0001280858
   11    6    4    1       -0.0018311090
   11    6    6    1       -0.0005679519
   11    6   10    1        0.0016994259
   11    6   11    1        0.0014695603
   11    6    2    2        0.0070781265
   11    6    4    2       -0.0158666362
   11    6    6    2       -0.0028755586
   11    6   10    2        0.0050566289
   11    6   11    2       -0.0083347268
   11    6    3    3        0.0145959428
   11    6    7    3       -0.0065454058
   11    6    8    3       -0.0045778902
   11    6    4    4        0.0164945616
   11    6    6    4        0.0069618776
   11    6   10    4        0.0096108448
   11    6   11    4        0.0055719537
   11    6    5    5        0.0142163907
   11    6    9    5       -0.0019274705
   11    6    6    6       -0.0092425120
   11    6   10    6       -0.0005324971
   11    6   11    6        0.0188760552
   11    6    7    7       -0.0035591087
   11    6    8    7        0.0080448853
   11    6    8    8        0.0200267337
   11    6    9    9        0.0094125866
   11    6   10   10        0.0064821767
   12    6    3    1       -0.0071611720
   12    6    7    1        0.0046554665
   12    6    8    1        0.0014810208
   12    6   12    1        0.0105319455
   12    6    3    2       -0.0375283157
   12    6    7    2        0.0130744845
   12    6    8    2        0.0001662063
   12    6   12    2        0.0069765634
   12    6    4    3       -0.0009466567
   12    6    6    3       -0.0010058725
   12    6   10    3       -0.0065135947
   12    6   11    3        0.0104877084
   12    6    7    4       -0.0061753071
   12    6    8    4       -0.0174662557
   12    6   12    4        0.0001232831
   12    6    7    6        0.0016853187
   12    6    8    6       -0.0007958588
   12    6   12    6        0.0197647901
   12    6   10    7       -0.0099661215
   12    6   11    7        0.0037791744
   12    6   10    8       -0.0215434786
   12    6   11    8        0.0040550320
   13    6    1    1       -0.1849193232
   13    6    2    1        0.0041587347
   13    6    4    1       -0.0076222011
   13    6    6    1       -0.0006832351
   13    6   10    1        0.0052208212
   13    6   11    1        0.0071032665
   13    6   13    1       -0.0026648018
   13    6    2    2       -0.0915440549
   13    6    4    2       -0.0010812543
   13    6    6    2       -0.0282130416
   13    6   10    2        0.0275412868
   13    6   11    2       -0.0079636374
   13    6   13    2        0.0252317927
   13    6    3    3       -0.0673182674
   13    6    7    3        0.0346045336
   13    6    8    3        0.0095784934
   13    6   12    3        0.0321927477
   13    6    4    4       -0.0736993202
   13    6    6    4       -0.0211182799
   13    6   10    4        0.0282948006
   13    6   11    4        0.0173146693
   13    6   13    4       -0.0001583135
   13    6    5    5       -0.0886652542
   13    6    9    5       -0.0377526700
   13    6    6    6       -0.0169740630
   13    6   10    6        0.0249379122
   13    6   11    6       -0.0006330090
   13    6   13    6        0.0285831229
   13    6    7    7       -0.0119028871
   13    6    8    7       -0.0133073098
   13    6   12    7       -0.0316741544
   13    6    8    8       -0.0276500514
   13    6   12    8        0.0012306252
   13    6    9    9       -0.0769881618
   13    6   10   10       -0.0592727135
   13    6   11   10       -0.0210418411
   13    6   11   11       -0.0504643968
   13    6   12   12       -0.0729301461
    7    7    1    1        0.4811906262
    7    7    2    1       -0.0030333056
    7    7    4    1        0.0019001021
    7    7    6    1       -0.0006765238
    7    7    2    2        0.4037568624
    7    7    4    2        0.0095481447
    7    7    6    2        0.0188937245
    7    7    3    3        0.4038542023
    7    7    7    3       -0.0201996033
    7    7    4    4        0.3787987314
    7    7    6    4        0.0005007522
    7    7    5    5        0.3792774316
    7    7    6    6        0.3351091015
    7    7    7    7        0.3480008124
    8    7    1    1        0.1188885112
    8    7    2    1       -0.0013973658
    8    7    4    1       -0.0009637428
    8    7    6    1       -0.0008829304
    8    7    2    2        0.0829616977
    8    7    4    2       -0.0084952838
    8    7    6    2        0.0103587412
    8    7    3    3        0.0810846444
    8    7    7    3       -0.0225043113
    8    7    8    3        0.0090272100
    8    7    4    4        0.0847381045
    8    7    6    4        0.0095214716
    8    7    5    5        0.0767518335
    8    7    6    6        0.0234905150
    8    7    7    7        0.0272047300
    8    7    8    7        0.0254377035
    9    7    5    3       -0.0099519756
    9    7    9    3       -0.0033415475
    9    7    7    5        0.0035850277
    9    7    8    5        0.0028460528
    9    7    9    7        0.0065997958
   10    7    3    1        0.0021730694
   10    7    7    1       -0.0013491001
   10    7    8    1       -0.0002904351
   10    7    3    2        0.0214124005
   10    7    7    2       -0.0005150439
   10    7    8    2        0.0133718417
   10    7    4    3        0.0139164417
   10    7    6    3       -0.0021648173
   10    7   10    3        0.0154823409
   10    7    7    4        0.0023153881
   10    7    8    4        0.0137828443
   10    7    7    6       -0.0039860245
   10    7    8    6       -0.0099250797
   10    7   10    7        0.0145074677
   11    7    3    1       -0.0040455533
   11    7    7    1        0.0027258588
   11    7    8    1        0.0010435311
   11    7    3    2       -0.0121973963
   11    7    7    2        0.0046707952
   11    7    8    2       -0.0028401949
   11    7    4    3        0.0028111023
   11    7    6    3       -0.0007006693
   11    7   10    3       -0.0095840163
   11    7   11    3       -0.0006013457
   11    7    7    4       -0.0041670010
   11    7    8    4       -0.0061599762
   11    7    7    6       -0.0021342741
   11    7    8    6        0.0055326445
   11    7   10    7       -0.0035089017
   11    7   11    7        0.0079230855
   11    7   10    8       -0.0082738465
   12    7    1    1        0.3208479724
   12    7    2    1       -0.0077540700
   12    7    4    1        0.0028240516
   12    7    6    1       -0.0024108639
   12    7   10    1        0.0016485919
   12    7   11    1       -0.0034561730
   12    7    2    2        0.1453348854
   12    7    4    2       -0.0105855592
   12    7    6    2        0.0359516448
   12    7   10    2       -0.0196819905
   12    7   11    2        0.0188297515
   12    7    3    3        0.1289353324
   12    7    7    3       -0.0534823997
   12    7    8    3       -0.0037837414
   12    7   12    3       -0.0647454303
   12    7    4    4        0.1270580450
   12    7    6    4        0.0233938081
   12    7   10    4       -0.0424472894
   12    7   11    4       -0.0532092030
   12    7    5    5        0.1387077127
   12    7    9    5        0.0716214629
   12    7    6    6        0.0333196363
   12    7   10    6       -0.0418478398
   12    7   11    6        0.0034850292
   12    7    7    7        0.0397346906
   12    7    8    7        0.0261073289
   12    7   12    7        0.0615467571
   12    7    8    8        0.0610684089
   12    7    9    9        0.1165756542
   12    7   10   10        0.1073618706
   12    7   11   10        0.0223201582
   12    7   11   11        0.0857419955
   13    7    3    1        0.0067032714
   13    7    7    1       -0.0044413160
   13    7    8    1       -0.0014943846
   13    7   12    1       -0.0101745820
   13    7    3    2        0.0063832779
   13    7    7    2       -0.0135367770
   13    7    8    2       -0.0059467969
   13    7   12    2       -0.0185882128
   13    7    4    3       -0.0080922571
   13    7    6    3        0.0178675531
   13    7   10    3       -0.0114123008
   13    7   11    3        0.0114210359
   13    7   13    3       -0.0068608507
   13    7    7    4       -0.0058719889
   13    7    8    4       -0.0046013192
   13    7   12    4        0.0050169711
   13    7    7    6        0.0255448880
   13    7    8    6       -0.0053069350
   13    7   12    6       -0.0077464257
   13    7   10    7        0.0019989623
   13    7   11    7       -0.0040735482
   13    7   13    7        0.0192161689
   13    7   10    8       -0.0197026496
   13    7   11    8        0.0046593121
   13    7   12   10       -0.0031962210
   13    7   12   11        0.0031842779
    8    8    1    1        0.4976510418
    8    8    2    1        0.0002220416
    8    8    4    1        0.0026876649
    8    8    6    1        0.0010154134
    8    8    2    2        0.4987838713
    8    8    4    2        0.0339321056
    8    8    6    2        0.0224461682
    8    8    3    3        0.5101356743
    8    8    7    3       -0.0262696823
    8    8    8    3        0.0796596233
    8    8    4    4        0.4577861235
    8    8    6    4        0.0102172335
    8    8    5    5        0.4437870654
    8    8    6    6        0.3535975909
    8    8    7    7        0.3565312399
    8    8    8    7        0.0635689263
    8    8    8    8        0.5060394944
    9    8    5    3        0.0020865094
    9    8    9    3       -0.0058968983
    9    8    7    5        0.0007518999
    9    8    8    5       -0.0047815041
    9    8    9    7        0.0001397951
    9    8    9    8        0.0076069134
   10    8    3    1        0.0050114320
   10    8    7    1       -0.0031184475
   10    8    8    1       -0.0008931170
   10    8    3    2        0.0975249864
   10    8    7    2        0.0047753044
   10    8    8    2        0.0524297902
   10    8    4    3        0.0447259827
   10    8    6    3       -0.0382810659
   10    8   10    3        0.0852311803
   10    8    7    4        0.0332159927
   10    8    8    4        0.0716619061
   10    8    7    6       -0.0701914341
   10    8    8    6       -0.0076518920
   10    8   10    7        0.0288193554
   10    8   10    8        0.1494458261
   11    8    3    1       -0.0038243217
   11    8    7    1        0.0024529616
   11    8    8    1        0.0007748603
   11    8    3    2       -0.0451752377
   11    8    7    2       -0.0032631649
   11    8    8    2       -0.0351001079
   11    8    4    3       -0.0271087376
   11    8    6    3        0.0128206552
   11    8   10    3       -0.0491264091
   11    8   11    3        0.0239355764
   11    8    7    4       -0.0121764689
   11    8    8    4       -0.0290631276
   11    8    7    6        0.0294878956
   11    8    8    6        0.0146073937
   11    8   10    7       -0.0150455021
   11    8   11    7        0.0101518844
   11    8   10    8       -0.0714608217
   11    8   11    8        0.0521629909
   12    8    1    1        0.0896235900
   12    8    2    1       -0.0023274792
   12    8    4    1        0.0022398346
   12    8    6    1       -0.0003074815
   12    8   10    1       -0.0006944492
   12    8   11    1       -0.0020684638
   12    8    2    2        0.0451494284
   12    8    4    2        0.0251432423
   12    8    6    2        0.0098052169
   12    8   10    2        0.0104386799
   12    8   11    2        0.0033188901
   12    8    3    3        0.0454730849
   12    8    7    3        0.0020785491
   12    8    8    3        0.0383962312
   12    8   12    3       -0.0217670779
   12    8    4    4        0.0211813564
   12    8    6    4       -0.0076512665
   12    8   10    4       -0.0012401030
   12    8   11    4       -0.0305508058
   12    8    5    5        0.0233110250
   12    8    9    5        0.0265135822
   12    8    6    6        0.0256472123
   12    8   10    6       -0.0228672387
   12    8   11    6       -0.0100343973
   12    8    7    7        0.0282612363
   12    8    8    7        0.0076575245
   12    8   12    7        0.0169491190
   12    8    8    8        0.0367210171
   12    8   12    8        0.0382892383
   12    8    9    9        0.0165880634
   12    8   10   10        0.0600677147
   12    8   11   10       -0.0268975260
   12    8   11   11        0.0139324686
   13    8    3    1        0.0003856991
   13    8    7    1       -0.0002912909
   13    8    8    1       -0.0001307374
   13    8   12    1       -0.0008732831
   13    8    3    2       -0.0243682185
   13    8    7    2        0.0001410859
   13    8    8    2       -0.0079379893
   13    8   12    2       -0.0109089626
   13    8    4    3       -0.0066328868
   13    8    6    3        0.0107554416
   13    8   10    3       -0.0201045416
   13    8   11    3        0.0186179923
   13    8   13    3       -0.0009695394
   13    8    7    4       -0.0086943721
   13    8    8    4       -0.0202398899
   13    8   12    4        0.0011310817
   13    8    7    6        0.0112516895
   13    8    8    6        0.0003630171
   13    8   12    6        0.0095332258
   13    8   10    7       -0.0082887245
   13    8   11    7        0.0014141893
   13    8   13    7        0.0058414113
   13    8   10    8       -0.0374543140
   13    8   11    8        0.0134529606
   13    8   13    8        0.0167639411
   13    8   12   10       -0.0082663523
   13    8   12   11        0.0156253561
    9    9    1    1        0.9787152054
    9    9    2    1       -0.0172119555
    9    9    4    1        0.0057871275
    9    9    6    1       -0.0053373440
    9    9    2    2        0.6095719975
    9    9    4    2       -0.0342509728
    9    9    6    2        0.0793952604
    9    9    3    3        0.5383149930
    9    9    7    3       -0.1081324112
    9    9    8    3       -0.0177588925
    9    9    4    4        0.5777940160
    9    9    6    4        0.0551460695
    9    9    5    5        0.6531471719
    9    9    9    5        0.1633357267
    9    9    6    6        0.3476434097
    9    9    7    7        0.3520774418
    9    9    8    7        0.0607839854
    9    9    8    8        0.4051118812
    9    9    9    9        0.5952686461
   10    9    5    1       -0.0044201370
   10    9    9    1       -0.0051665464
   10    9    5    2       -0.0068477462
   10    9    9    2       -0.0130723099
   10    9    5    4       -0.0147810403
   10    9    9    4       -0.0037046532
   10    9    6    5       -0.0106584271
   10    9   10    5        0.0086188615
   10    9    9    6       -0.0016948967
   10    9   10    9        0.0181391470
   11    9    5    1        0.0113291471
   11    9    9    1        0.0130599832
   11    9    5    2        0.0302964041
   11    9    9    2        0.0151427690
   11    9    5    4       -0.0295699417
   11    9    9    4       -0.0067282930
   11    9    6    5        0.0031854286
   11    9   10    5       -0.0021585643
   11    9   11    5        0.0078087531
   11    9    9    6        0.0059483148
   11    9   10    9        0.0076839345
   11    9   11    9        0.0280542868
   12    9    5    3       -0.0226538545
   12    9    9    3       -0.0053890729
   12    9    7    5        0.0104463546
   12    9    8    5        0.0101624845
   12    9   12    5        0.0083469088
   12    9    9    7        0.0093737537
   12    9    9    8       -0.0043381043
   12    9   12    9        0.0244950181
   13    9    5    1       -0.0215101939
   13    9    9    1       -0.0245900326
   13    9    5    2       -0.0906528751
   13    9    9    2       -0.0154720809
   13    9    5    4        0.0244802036
   13    9    9    4        0.0099775693
   13    9    6    5       -0.0115498070
   13    9   10    5        0.0279667896
   13    9   11    5       -0.0243507148
   13    9   13    5       -0.0217067393
   13    9    9    6       -0.0348529768
   13    9   10    9       -0.0027217386
   13    9   11    9       -0.0181052999
   13    9   13    9        0.0829588538
   10   10    1    1        0.8599810726
   10   10    2    1       -0.0101502806
   10   10    4    1        0.0146750408
   10   10    6    1        0.0004644335
   10   10   10    1       -0.0084551764
   10   10    2    2        0.6263842812
   10   10    4    2        0.0459607383
   10   10    6    2        0.0719713845
   10   10   10    2       -0.0133501202
   10   10    3    3        0.5870857447
   10   10    7    3       -0.0655283888
   10   10    8    3        0.0770123980
   10   10    4    4        0.5651035143
   10   10    6    4        0.0392942529
   10   10   10    4       -0.0518287467
   10   10    5    5        0.5634297804
   10   10    9    5        0.1312704592
   10   10    6    6        0.3899146629
   10   10   10    6       -0.1266839379
   10   10    7    7        0.3857422022
   10   10    8    7        0.0745783778
   10   10    8    8        0.5138471962
   10   10    9    9        0.5061448490
   10   10   10   10        0.6113386388
   11   10    1    1        0.2108176369
   11   10    2    1       -0.0087892105
   11   10    4    1       -0.0060595541
   11   10    6    1       -0.0057379333
   11   10   10    1        0.0105901434
   11   10   11    1        0.0037315721
   11   10    2    2        0.0308655999
   11   10    4    2       -0.0629222568
   11   10    6    2        0.0175062558
   11   10   10    2       -0.0351354539
   11   10   11    2        0.0296788167
   11   10    3    3        0.0003406004
   11   10    7    3       -0.0472076190
   11   10    8    3       -0.0659326919
   11   10    4    4        0.0898206423
   11   10    6    4        0.0337561881
   11   10   10    4       -0.0654133156
   11   10   11    4       -0.0194780610
   11   10    5    5        0.0664218911
   11   10    9    5        0.0439842538
   11   10    6    6       -0.0187591129
   11   10   10    6        0.0012796613
   11   10   11    6        0.0038993576
   11   10    7    7       -0.0121466918
   11   10    8    7        0.0019923861
   11   10    8    8       -0.0545524368
   11   10    9    9        0.0593908869
   11   10   10   10       -0.0176228206
   11   10   11   10        0.0861959069
   12   10    3    1        0.0047719337
   12   10    7    1       -0.0029330062
   12   10    8    1       -0.0006622728
   12   10   12    1       -0.0068484089
   12   10    3    2        0.0420200641
   12   10    7    2       -0.0005996935
   12   10    8    2        0.0239769463
   12   10   12    2       -0.0033606118
   12   10    4    3        0.0283466693
   12   10    6    3       -0.0066124275
   12   10   10    3        0.0251549253
   12   10   11    3       -0.0220646300
   12   10    7    4        0.0050359886
   12   10    8    4        0.0189332132
   12   10   12    4        0.0014367269
   12   10    7    6       -0.0305748321
   12   10    8    6       -0.0075017465
   12   10   12    6       -0.0085921818
   12   10   10    7        0.0148179578
   12   10   11    7       -0.0022947212
   12   10   10    8        0.0512308840
   12   10   11    8       -0.0320399438
   12   10   12   10        0.0343781021
   13   10    1    1        0.1317070057
   13   10    2    1       -0.0027727765
   13   10    4    1        0.0154327869
   13   10    6    1        0.0038237913
   13   10   10    1       -0.0137331542
   13   10   11    1       -0.0134669795
   13   10   13    1        0.0010195332
   13   10    2    2        0.0464901249
   13   10    4    2        0.0291921240
   13   10    6    2        0.0295558250
   13   10   10    2       -0.0383036695
   13   10   11    2        0.0035470278
   13   10   13    2       -0.0261380597
   13   10    3    3        0.0192255174
   13   10    7    3       -0.0147931657
   13   10    8    3       -0.0047133646
   13   10   12    3       -0.0309544828
   13   10    4    4        0.0068220319
   13   10    6    4        0.0121092325
   13   10   10    4       -0.0253985215
   13   10   11    4       -0.0058438988
   13   10   13    4       -0.0058055499
   13   10    5    5        0.0289967115
   13   10    9    5        0.0347557441
   13   10    6    6        0.0151732270
   13   10   10    6       -0.0193688380
   13   10   11    6       -0.0104940995
   13   10   13    6       -0.0173113332
   13   10    7    7        0.0071988636
   13   10    8    7       -0.0037391326
   13   10   12    7        0.0144474155
   13   10    8    8       -0.0154703657
   13   10   12    8        0.0058568160
   13   10    9    9        0.0235678627
   13   10   10   10        0.0234839634
   13   10   11   10        0.0112863099
   13   10   13   10        0.0355551976
   13   10   11   11       -0.0063782116
   13   10   12   12        0.0267019238
   11   11    1    1        0.7466333855
   11   11    2    1       -0.0124440254
   11   11    4    1       -0.0069962230
   11   11    6    1       -0.0076610784
   11   11   10    1        0.0139957604
   11   11   11    1        0.0040995752
   11   11    2    2        0.5304891284
   11   11    4    2       -0.0439835166
   11   11    6    2        0.0396763143
   11   11   10    2       -0.0025585333
   11   11   11    2        0.0233292657
   11   11    3    3        0.5011591947
   11   11    7    3       -0.0783036249
   11   11    8    3        0.0070516325
   11   11    4    4        0.5659097340
   11   11    6    4        0.0447385908
   11   11   10    4       -0.0570401171
   11   11   11    4       -0.0757164633
   11   11    5    5        0.5276648415
   11   11    9    5        0.1006228739
   11   11    6    6        0.3338545215
   11   11   10    6       -0.0722444165
   11   11   11    6        0.0197098904
   11   11    7    7        0.3403442140
   11   11    8    7        0.0650009504
   11   11    8    8        0.4270738604
   11   11    9    9        0.4792567836
   11   11   10   10        0.4859985027
   11   11   11   10        0.0451907038
   11   11   11   11        0.4932607748
   12   11    3    1       -0.0105005015
   12   11    7    1        0.0069942130
   12   11    8    1        0.0026527030
   12   11   12    1        0.0155876773
   12   11    3    2       -0.0598495371
   12   11    7    2        0.0156122587
   12   11    8    2        0.0004074059
   12   11   12    2        0.0038467735
   12   11    4    3        0.0096028773
   12   11    6    3        0.0150779545
   12   11   10    3       -0.0269700280
   12   11   11    3        0.0139298956
   12   11    7    4       -0.0277344341
   12   11    8    4       -0.0379776507
   12   11   12    4       -0.0106399170
   12   11    7    6        0.0281538678
   12   11    8    6       -0.0079721545
   12   11   12    6        0.0171200055
   12   11   10    7       -0.0045672513
   12   11   11    7        0.0063542103
   12   11   10    8       -0.0482210967
   12   11   11    8        0.0130488040
   12   11   12   10       -0.0056013858
   12   11   12   11        0.0452379276
   13   11    1    1       -0.1055413420
   13   11    2    1        0.0066261957
   13   11    4    1        0.0093801081
   13   11    6    1        0.0060115696
   13   11   10    1       -0.0128063652
   13   11   11    1       -0.0068112021
   13   11   13    1       -0.0057701055
   13   11    2    2       -0.0073349971
   13   11    4    2        0.0610777606
   13   11    6    2       -0.0006296257
   13   11   10    2        0.0037575627
   13   11   11    2       -0.0131241908
   13   11   13    2        0.0196860703
   13   11    3    3       -0.0086154082
   13   11    7    3        0.0308860922
   13   11    8    3        0.0406942963
   13   11   12    3        0.0243400018
   13   11    4    4       -0.0550036539
   13   11    6    4       -0.0161756628
   13   11   10    4        0.0289979024
   13   11   11    4        0.0188939918
   13   11   13    4       -0.0018974200
   13   11    5    5       -0.0375185201
   13   11    9    5       -0.0294901194
   13   11    6    6        0.0185305742
   13   11   10    6       -0.0075839002
   13   11   11    6       -0.0121990742
   13   11   13    6        0.0046205361
   13   11    7    7        0.0037032868
   13   11    8    7       -0.0050190008
   13   11   12    7       -0.0126900004
   13   11    8    8        0.0190595425
   13   11   12    8        0.0163958298
   13   11    9    9       -0.0295128635
   13   11   10   10        0.0157501426
   13   11   11   10       -0.0443340570
   13   11   13   10        0.0076033814
   13   11   11   11       -0.0278645803
   13   11   13   11        0.0441834508
   13   11   12   12       -0.0393276071
   12   12    1    1        1.0202552999
   12   12    2    1       -0.0191833790
   12   12    4    1        0.0061770385
   12   12    6    1       -0.0062815757
   12   12   10    1        0.0048324799
   12   12   11    1       -0.0080701077
   12   12    2    2        0.6202594095
   12   12    4    2       -0.0356941309
   12   12    6    2        0.0766340024
   12   12   10    2       -0.0411504622
   12   12   11    2        0.0353146448
   12   12    3    3        0.5912643621
   12   12    7    3       -0.1255143654
   12   12    8    3       -0.0183505754
   12   12   12    3       -0.1310788510
   12   12    4    4        0.5898088707
   12   12    6    4        0.0560818246
   12   12   10    4       -0.0930003563
   12   12   11    4       -0.1154963459
   12   12    5    5        0.6049651289
   12   12    9    5        0.1618423015
   12   12    6    6        0.3570328161
   12   12   10    6       -0.0987639918
   12   12   11    6        0.0160531810
   12   12    7    7        0.3783587349
   12   12    8    7        0.0699393637
   12   12   12    7        0.1339917415
   12   12    8    8        0.4371757759
   12   12   12    8        0.0218729360
   12   12    9    9        0.5452874130
   12   12   10   10        0.5281858585
   12   12   11   10        0.0547460963
   12   12   11   11        0.4893118908
   12   12   12   12        0.6054357701
   13   12    3    1        0.0170627170
   13   12    7    1       -0.0111889515
   13   12    8    1       -0.0038440190
   13   12   12    1       -0.0254157774
   13   12    3    2        0.0710008268
   13   12    7    2       -0.0263804727
   13   12    8    2       -0.0088597596
   13   12   12    2       -0.0228136240
   13   12    4    3       -0.0079426062
   13   12    6    3       -0.0022637920
   13   12   10    3        0.0056146154
   13   12   11    3       -0.0039059378
   13   12   13    3       -0.0167327669
   13   12    7    4        0.0221118283
   13   12    8    4        0.0282578273
   13   12   12    4        0.0061366561
   13   12    7    6       -0.0312480187
   13   12    8    6        0.0105684886
   13   12   12    6       -0.0206225642
   13   12   10    7        0.0043716044
   13   12   11    7       -0.0038398393
   13   12   13    7        0.0057085199
   13   12   10    8        0.0288940817
   13   12   11    8       -0.0056826312
   13   12   13    8       -0.0084729374
   13   12   12   10        0.0128949875
   13   12   12   11       -0.0346274546
   13   12   13   12        0.0500842217
   13   13    1    1        0.7890985102
   13   13    2    1       -0.0097900780
   13   13    4    1        0.0114993766
   13   13    6    1       -0.0004826138
   13   13   10    1       -0.0056236335
   13   13   11    1       -0.0109969188
   13   13   13    1        0.0069672846
   13   13    2    2        0.5925456977
   13   13    4    2        0.0191029535
   13   13    6    2        0.0703755122
   13   13   10    2       -0.0395169051
   13   13   11    2        0.0312566172
   13   13   13    2       -0.0526754315
   13   13    3    3        0.5328383629
   13   13    7    3       -0.0777851414
   13   13    8    3        0.0175870357
   13   13   12    3       -0.0792698077
   13   13    4    4        0.5324236078
   13   13    6    4        0.0391073891
   13   13   10    4       -0.0620299606
   13   13   11    4       -0.0776592555
   13   13   13    4        0.0210406113
   13   13    5    5        0.5781023200
   13   13    9    5        0.1043659217
   13   13    6    6        0.3665221519
   13   13   10    6       -0.0938999012
   13   13   11    6       -0.0006849315
   13   13   13    6       -0.0635367262
   13   13    7    7        0.3629089246
   13   13    8    7        0.0572074661
   13   13   12    7        0.0954377941
   13   13    8    8        0.4274950187
   13   13   12    8        0.0277667281
   13   13    9    9        0.5195243519
   13   13   10   10        0.5099215738
   13   13   11   10        0.0170199589
   13   13   13   10        0.0250902592
   13   13   11   11        0.4518401106
   13   13   13   11        0.0103774032
   13   13   12   12        0.5031354212
   13   13   13   13        0.5189392550
 end_two_electron_integrals
 enrep_tce =    9.1282843851560642     
  EHF(A)             =       -75.98264018
  EHF(total)         =       -75.98264018
  Shift (HFtot-HFA)  =         0.00000000
 Cpu & wall time / sec            0.1            0.1
 T1-number-of-tasks                   40

 t1 file size   =               40
 t1 file name   = ./water.t1
 t1 file handle =       -998
 T2-number-of-boxes                 2140

 t2 file size   =             2140
 t2 file name   = ./water.t2
 t2 file handle =       -996

 MBPT(2) iterations
 --------------------------------------------------------
 Iter          Residuum       Correlation     Cpu    Wall
 --------------------------------------------------------
    1   0.0000000000011  -0.1296880417953     0.5     0.6
 --------------------------------------------------------
 Iterations converged
 MBPT(2) correlation energy / hartree =        -0.129688041795271
 MBPT(2) total energy / hartree       =       -76.112328217503517

 Task  times  cpu:        1.2s     wall:        4.8s


                                NWChem Input Module
                                -------------------


 Summary of allocated global arrays
-----------------------------------
  No active global arrays



                         GA Statistics for process    0
                         ------------------------------

       create   destroy   get      put      acc     scatter   gather  read&inc
calls:  390      390     5.26e+04 2190     7371        0        0     2.57e+04 
number of processes/call 7.99e+12 8.38e+13 1.93e+13 0.00e+00 0.00e+00
bytes total:             6.42e+06 5.15e+05 1.49e+05 0.00e+00 0.00e+00 2.06e+05
bytes remote:            4.48e+06 1.99e+05 6.03e+04 0.00e+00 0.00e+00 0.00e+00
Max memory consumed for GA by this process: 66824 bytes

MA_summarize_allocated_blocks: starting scan ...
MA_summarize_allocated_blocks: scan completed: 0 heap blocks, 0 stack blocks
MA usage statistics:

	allocation statistics:
					      heap	     stack
					      ----	     -----
	current number of blocks	         0	         0
	maximum number of blocks	        16	        33
	current total bytes		         0	         0
	maximum total bytes		     80136	  22509416
	maximum total K-bytes		        81	     22510
	maximum total M-bytes		         1	        23


                                     CITATION
                                     --------
                Please cite the following reference when publishing
                           results obtained with NWChem:

          E. Apr, E. J. Bylaska, W. A. de Jong, N. Govind, K. Kowalski,
       T. P. Straatsma, M. Valiev, H. J. J. van Dam, Y. Alexeev, J. Anchell,
       V. Anisimov, F. W. Aquino, R. Atta-Fynn, J. Autschbach, N. P. Bauman,
     J. C. Becca, D. E. Bernholdt, K. Bhaskaran-Nair, S. Bogatko, P. Borowski,
        J. Boschen, J. Brabec, A. Bruner, E. Caut, Y. Chen, G. N. Chuev,
      C. J. Cramer, J. Daily, M. J. O. Deegan, T. H. Dunning Jr., M. Dupuis,
   K. G. Dyall, G. I. Fann, S. A. Fischer, A. Fonari, H. Frchtl, L. Gagliardi,
      J. Garza, N. Gawande, S. Ghosh, K. Glaesemann, A. W. Gtz, J. Hammond,
       V. Helms, E. D. Hermes, K. Hirao, S. Hirata, M. Jacquelin, L. Jensen,
   B. G. Johnson, H. Jnsson, R. A. Kendall, M. Klemm, R. Kobayashi, V. Konkov,
      S. Krishnamoorthy, M. Krishnan, Z. Lin, R. D. Lins, R. J. Littlefield,
      A. J. Logsdail, K. Lopata, W. Ma, A. V. Marenich, J. Martin del Campo,
   D. Mejia-Rodriguez, J. E. Moore, J. M. Mullin, T. Nakajima, D. R. Nascimento,
    J. A. Nichols, P. J. Nichols, J. Nieplocha, A. Otero-de-la-Roza, B. Palmer,
    A. Panyala, T. Pirojsirikul, B. Peng, R. Peverati, J. Pittner, L. Pollack,
   R. M. Richard, P. Sadayappan, G. C. Schatz, W. A. Shelton, D. W. Silverstein,
   D. M. A. Smith, T. A. Soares, D. Song, M. Swart, H. L. Taylor, G. S. Thomas,
            V. Tipparaju, D. G. Truhlar, K. Tsemekhman, T. Van Voorhis,
     . Vzquez-Mayagoitia, P. Verma, O. Villa, A. Vishnu, K. D. Vogiatzis,
        D. Wang, J. H. Weare, M. J. Williamson, T. L. Windus, K. Woliski,
        A. T. Wong, Q. Wu, C. Yang, Q. Yu, M. Zacharias, Z. Zhang, Y. Zhao,
                                and R. J. Harrison
                        "NWChem: Past, present, and future
                         J. Chem. Phys. 152, 184102 (2020)
                               doi:10.1063/5.0004997

                                      AUTHORS
                                      -------
     E. Apra, E. J. Bylaska, N. Govind, K. Kowalski, M. Valiev, W. A. de Jong,
      T. P. Straatsma, H. J. J. van Dam, D. Wang, T. L. Windus, N. P. Bauman,
       A. Panyala, J. Hammond, J. Autschbach, K. Bhaskaran-Nair, J. Brabec,
    K. Lopata, S. A. Fischer, S. Krishnamoorthy, M. Jacquelin, W. Ma, M. Klemm,
       O. Villa, Y. Chen, V. Anisimov, F. Aquino, S. Hirata, M. T. Hackler,
           Eric Hermes, L. Jensen, J. E. Moore, J. C. Becca, V. Konjkov,
            D. Mejia-Rodriguez, T. Risthaus, M. Malagoli, A. Marenich,
   A. Otero-de-la-Roza, J. Mullin, P. Nichols, R. Peverati, J. Pittner, Y. Zhao,
        P.-D. Fan, A. Fonari, M. J. Williamson, R. J. Harrison, J. R. Rehr,
      M. Dupuis, D. Silverstein, D. M. A. Smith, J. Nieplocha, V. Tipparaju,
      M. Krishnan, B. E. Van Kuiken, A. Vazquez-Mayagoitia, M. Swart, Q. Wu,
   T. Van Voorhis, A. A. Auer, M. Nooijen, L. D. Crosby, E. Brown, G. Cisneros,
     G. I. Fann, H. Fruchtl, J. Garza, K. Hirao, R. A. Kendall, J. A. Nichols,
       K. Tsemekhman, K. Wolinski, J. Anchell, D. E. Bernholdt, P. Borowski,
       T. Clark, D. Clerc, H. Dachsel, M. J. O. Deegan, K. Dyall, D. Elwood,
      E. Glendening, M. Gutowski, A. C. Hess, J. Jaffe, B. G. Johnson, J. Ju,
        R. Kobayashi, R. Kutteh, Z. Lin, R. Littlefield, X. Long, B. Meng,
      T. Nakajima, S. Niu, L. Pollack, M. Rosing, K. Glaesemann, G. Sandrone,
      M. Stave, H. Taylor, G. Thomas, J. H. van Lenthe, A. T. Wong, Z. Zhang.

 Total times  cpu:        1.5s     wall:       32.0s
